----- GAMESS execution script 'rungms' -----
This job is running on host chemcompute-node-0.novalocal
under operating system Linux at Sat Nov 13 17:09:17 UTC 2021
SLURM has assigned the following compute nodes to this run:
chemcompute-node-0
Available scratch disk space (Kbyte units) at beginning of the job is
Filesystem     1K-blocks     Used Available Use% Mounted on
/dev/sda1       62903276 16911540  45991736  27% /
GAMESS temporary binary files will be written to /scratch/306057
GAMESS supplementary output files will be written to /data/slurm/341959
Copying input file 341959.inp to your run's scratch directory...
The generated host list is
chemcompute-node-0.novalocal

 Distributed Data Interface kickoff program.
 Initiating 1 compute processes on 1 nodes to run the following command:
 /data/gamess-2019R1-ddi/gamess.00.x 341959 

          ******************************************************
          *         GAMESS VERSION = 30 JUN 2019 (R1)          *
          *             FROM IOWA STATE UNIVERSITY             *
          * M.W.SCHMIDT, K.K.BALDRIDGE, J.A.BOATZ, S.T.ELBERT, *
          *   M.S.GORDON, J.H.JENSEN, S.KOSEKI, N.MATSUNAGA,   *
          *          K.A.NGUYEN, S.J.SU, T.L.WINDUS,           *
          *       TOGETHER WITH M.DUPUIS, J.A.MONTGOMERY       *
          *         J.COMPUT.CHEM.  14, 1347-1363(1993)        *
          **************** 64 BIT LINUX VERSION ****************

  SINCE 1993, STUDENTS AND POSTDOCS WORKING AT IOWA STATE UNIVERSITY
  AND ALSO IN THEIR VARIOUS JOBS AFTER LEAVING ISU HAVE MADE IMPORTANT
  CONTRIBUTIONS TO THE CODE:
     IVANA ADAMOVIC, CHRISTINE AIKENS, YURI ALEXEEV, POOJA ARORA,
     ANDREY ASADCHEV, ROB BELL, PRADIPTA BANDYOPADHYAY, JONATHAN BENTZ,
     COLLEEN BERTONI, BRETT BODE, KURT BRORSEN, CALEB CARLIN, GALINA CHABAN,
     WEI CHEN, CHEOL HO CHOI, PAUL DAY, ALBERT DEFUSCO, NUWAN DESILVA,
     TIM DUDLEY, DMITRI FEDOROV, ALEX FINDLATER, GRAHAM FLETCHER, 
     MARK FREITAG, KURT GLAESEMANN, ANASTASIA GUNINA,
     DAN KEMP, GRANT MERRILL, NORIYUKI MINEZAWA, JONATHAN MULLIN,
     TAKESHI NAGATA, SEAN NEDD, HEATHER NETZLOFF, BOSILJKA NJEGIC, RYAN OLSON,
     MIKE PAK, BUU PHAM,
     SPENCER PRUITT, LUKE ROSKOP, JIM SHOEMAKER, LYUDMILA SLIPCHENKO,
     TONY SMITH, SAROM SOK LEANG, JIE SONG, TETSUYA TAKETSUGU, SIMON WEBB,
     PENG XU, SOOHAENG YOO, FEDERICO ZAHARIEV

  ADDITIONAL CODE HAS BEEN PROVIDED BY COLLABORATORS IN OTHER GROUPS:
     IOWA STATE UNIVERSITY:
          JOE IVANIC, AARON WEST, LAIMUTIS BYTAUTAS, KLAUS RUEDENBERG
     UNIVERSITY OF TOKYO: KIMIHIKO HIRAO, TAKAHITO NAKAJIMA,
          TAKAO TSUNEDA, MUNEAKI KAMIYA, SUSUMU YANAGISAWA,
          KIYOSHI YAGI, MAHITO CHIBA, SEIKEN TOKURA, NAOAKI KAWAKAMI
     UNIVERSITY OF AARHUS: FRANK JENSEN
     UNIVERSITY OF IOWA: VISVALDAS KAIRYS, HUI LI
     NATIONAL INST. OF STANDARDS AND TECHNOLOGY: WALT STEVENS, DAVID GARMER
     UNIVERSITY OF PISA: BENEDETTA MENNUCCI, JACOPO TOMASI
     UNIVERSITY OF MEMPHIS: HENRY KURTZ, PRAKASHAN KORAMBATH
     UNIVERSITY OF ALBERTA: TOBY ZENG, MARIUSZ KLOBUKOWSKI
     UNIVERSITY OF NEW ENGLAND: MARK SPACKMAN
     MIE UNIVERSITY: HIROAKI UMEDA
     NAT. INST. OF ADVANCED INDUSTRIAL SCIENCE AND TECHNOLOGY: KAZUO KITAURA
     MICHIGAN STATE UNIVERSITY:
          KAROL KOWALSKI, MARTA WLOCH, JEFFREY GOUR, JESSE LUTZ,
          WEI LI, JUN SHEN, J. EMILIANO DEUSTUA, PIOTR PIECUCH
     UNIVERSITY OF MINNESOTA:
          YINAN SHU
     UNIVERSITY OF SILESIA: MONIKA MUSIAL, STANISLAW KUCHARSKI
     FACULTES UNIVERSITAIRES NOTRE-DAME DE LA PAIX:
          OLIVIER QUINET, BENOIT CHAMPAGNE
     UNIVERSITY OF CALIFORNIA - SANTA BARBARA: BERNARD KIRTMAN
     INSTITUTE FOR MOLECULAR SCIENCE:
          KAZUYA ISHIMURA, MICHIO KATOUDA, AND SHIGERU NAGASE
     UNIVERSITY OF NOTRE DAME: ANNA POMOGAEVA, DAN CHIPMAN
     KYUSHU UNIVERSITY:
          HARUYUKI NAKANO,
          FENG LONG GU, JACEK KORCHOWIEC, MARCIN MAKOWSKI, AND YURIKO AOKI,
          HIROTOSHI MORI AND EISAKU MIYOSHI
     PENNSYLVANIA STATE UNIVERSITY:
          TZVETELIN IORDANOV, CHET SWALINA, JONATHAN SKONE,
          SHARON HAMMES-SCHIFFER
     WASEDA UNIVERSITY:
          MASATO KOBAYASHI, TOMOKO AKAMA, TSUGUKI TOUMA,
          TAKESHI YOSHIKAWA, YASUHIRO IKABATA, JUNJI SEINO,
          YUYA NAKAJIMA, HIROMI NAKAI
     NANJING UNIVERSITY: SHUHUA LI
     UNIVERSITY OF NEBRASKA:
          PEIFENG SU, DEJUN SI, NANDUN THELLAMUREGE, YALI WANG, HUI LI
     UNIVERSITY OF ZURICH: ROBERTO PEVERATI, KIM BALDRIDGE
     N. COPERNICUS UNIVERSITY AND JACKSON STATE UNIVERSITY:
          MARIA BARYSZ
     UNIVERSITY OF COPENHAGEN: Jimmy Kromann, CASPER STEINMANN
     TOKYO INSTITUTE OF TECHNOLOGY: HIROYA NAKATA
     NAGOYA UNIVERSITY: YOSHIO NISHIMOTO, STEPHAN IRLE
     MOSCOW STATE UNIVERSITY: VLADIMIR MIRONOV
     A.N.NESMEYANOV INSTITUTE OF ORGANOELEMENT COMPOUNDS OF RUSSIAN ACADEMY OF SCIENCES:
          IGOR S. GERASIMOV

 EXECUTION OF GAMESS BEGUN Sat Nov 13 17:09:17 2021

            ECHO OF THE FIRST FEW INPUT CARDS -
 INPUT CARD>!File created by the GAMESS Input Deck Generator Plugin for Avogadro            
 INPUT CARD> $BASIS GBASIS=STO NGAUSS=3 $END                                                
 INPUT CARD> $CONTRL SCFTYP=RHF RUNTYP=SADPOINT $END                                        
 INPUT CARD> $STATPT hssend=.t. OPTTOL=0.0005 NSTEP=50 $END                                 
 INPUT CARD> $STATPT HESS=calc ihrep=5 $END                                                 
 INPUT CARD> $FORCE nvib=2 $END                                                             
 INPUT CARD> $ZMAT DLC=.t. auto=.t. nonvdw(1)=1,6,3,4,4,5,5,6,1,2,2,3 $END                  
 INPUT CARD> $ZMAT IFZMAT(1)=1,1,6,1,3,4 fvalue(1)=2.00,2.00 $END                           
 INPUT CARD>                                                                                
 INPUT CARD>                                                                                
 INPUT CARD> $DATA                                                                          
 INPUT CARD>Title                                                                           
 INPUT CARD>C1                                                                              
 INPUT CARD>C     6.0     4.23645639    -2.45496202    -2.95089912                          
 INPUT CARD>C     6.0     3.10444498    -2.04589939    -2.23673487                          
 INPUT CARD>C     6.0     3.09399557    -0.79162234    -1.61557364                          
 INPUT CARD>C     6.0     4.58651972    -0.82225072    -0.28462157                          
 INPUT CARD>C     6.0     5.17110538    -2.08722591    -0.42120686                          
 INPUT CARD>C     6.0     5.76124573    -2.38171053    -1.65874946                          
 INPUT CARD>C     6.0     6.55585241    -1.25925660    -2.27456188                          
 INPUT CARD>C     6.0     6.39969110    -0.00705009    -1.89507425                          
 INPUT CARD>C     6.0     5.39290333     0.36422166    -0.83072621                          
 INPUT CARD>O     8.0     5.22699261     1.51159596    -0.43858150                          
 INPUT CARD>H     1.0     4.26005554    -3.47597766    -3.31740570                          
 INPUT CARD>H     1.0     4.67308903    -1.75027347    -3.64798546                          
 INPUT CARD>H     1.0     2.49364924    -2.82230020    -1.79077029                          
 INPUT CARD>H     1.0     3.46033216     0.05224345    -2.18808317                          
 INPUT CARD>H     1.0     2.24124527    -0.53674299    -0.99549842                          
 INPUT CARD>H     1.0     4.07160378    -0.59791905     0.64506203                          
 INPUT CARD>H     1.0     4.81752110    -2.90114617     0.19988462                          
 INPUT CARD>H     1.0     6.19671297    -3.36711454    -1.79307067                          
 INPUT CARD>H     1.0     7.26825285    -1.52745128    -3.04712033                          
 INPUT CARD>H     1.0     6.98921442     0.79929888    -2.31119728                          
 INPUT CARD> $END                                                                           
    1000000 WORDS OF MEMORY AVAILABLE

     BASIS OPTIONS
     -------------
     GBASIS=STO          IGAUSS=       3      POLAR=NONE    
     NDFUNC=       0     NFFUNC=       0     DIFFSP=       F
     NPFUNC=       0      DIFFS=       F     BASNAM=        


     RUN TITLE
     ---------
 Title                                                                           

 THE POINT GROUP OF THE MOLECULE IS C1      
 THE ORDER OF THE PRINCIPAL AXIS IS     0

 ATOM      ATOMIC                      COORDINATES (BOHR)
           CHARGE         X                   Y                   Z
 C           6.0     8.0057417360       -4.6392055281       -5.5763907542
 C           6.0     5.8665503562       -3.8661892455       -4.2268160115
 C           6.0     5.8468038345       -1.4959493084       -3.0529914926
 C           6.0     8.6672655081       -1.5538285540       -0.5378567775
 C           6.0     9.7719722218       -3.9442850444       -0.7959655495
 C           6.0    10.8871757776       -4.5007802838       -3.1345819617
 C           6.0    12.3887646708       -2.3796499222       -4.2982986953
 C           6.0    12.0936625851       -0.0133227383       -3.5811710589
 C           6.0    10.1911095720        0.6882791362       -1.5698449077
 O           8.0     9.8775837727        2.8565021685       -0.8287988583
 H           1.0     8.0503376631       -6.5686453168       -6.2689877631
 H           1.0     8.8308577829       -3.3075372619       -6.8936929266
 H           1.0     4.7123137731       -5.3333740331       -3.3840651551
 H           1.0     6.5390796089        0.0987258052       -4.1348776296
 H           1.0     4.2353394316       -1.0142971769       -1.8812192350
 H           1.0     7.6942154748       -1.1299031673        1.2189904818
 H           1.0     9.1037948191       -5.4823713116        0.3777271610
 H           1.0    11.7100895379       -6.3629238499       -3.3884122429
 H           1.0    13.7350062960       -2.8864643788       -5.7582224753
 H           1.0    13.2077001232        1.5104558655       -4.3675295628

          INTERNUCLEAR DISTANCES (ANGS.)
          ------------------------------

                1 C          2 C          3 C          4 C          5 C     

   1 C       0.0000000    1.3995759 *  2.4197127 *  3.1460017    2.7217901 *
   2 C       1.3995759 *  0.0000000    1.3997005 *  2.7394539 *  2.7511698 *
   3 C       2.4197127 *  1.3997005 *  0.0000000    2.0000000 *  2.7238733 *
   4 C       3.1460017    2.7394539 *  2.0000000 *  0.0000000    1.4001993 *
   5 C       2.7217901 *  2.7511698 *  2.7238733 *  1.4001993 *  0.0000000  
   6 C       1.9999998 *  2.7396033 *  3.1055544    2.3874932 *  1.4023190 *
   7 C       2.6956894 *  3.5401202    3.5549121    2.8335680 *  2.4572306 *
   8 C       3.4331652    3.8900238    3.4090024    2.5584566 *  2.8299893 *
   9 C       3.7121826    3.6086820    2.6901557 *  1.5349923 *  2.4952947 *
  10 O       4.7985919    4.5160090    3.3525813    2.4250257 *  3.5992977  
  11 H       1.0850608 *  2.1326999 *  3.3855120    4.0430960    3.3386541  
  12 H       1.0831267 *  2.1306494 *  2.7464970 *  3.4901199    3.2823250  
  13 H       2.1256089 *  1.0838607 *  2.1247970 *  3.2632482    3.0959344  
  14 H       2.7331916 *  2.1286677 *  1.0835493 *  2.3782776 *  3.2597432  
  15 H       3.3888086    2.1361963 *  1.0847303 *  2.4672197 *  3.3642069  
  16 H       4.0505211    3.3670160    2.4705692 *  1.0861744 *  2.1363211 *
  17 H       3.2348346    3.0989016    3.2736096    2.1470711 *  1.0831633 *
  18 H       2.4525894 *  3.3918385    4.0362756    3.3681557    2.1382227 *
  19 H       3.1719591    4.2735008    4.4738344    3.9141282    3.4068749  
  20 H       4.3101171    4.8158210    4.2646984    3.5368593    3.8999500  

                6 C          7 C          8 C          9 C         10 O     

   1 C       1.9999998 *  2.6956894 *  3.4331652    3.7121826    4.7985919  
   2 C       2.7396033 *  3.5401202    3.8900238    3.6086820    4.5160090  
   3 C       3.1055544    3.5549121    3.4090024    2.6901557 *  3.3525813  
   4 C       2.3874932 *  2.8335680 *  2.5584566 *  1.5349923 *  2.4250257 *
   5 C       1.4023190 *  2.4572306 *  2.8299893 *  2.4952947 *  3.5992977  
   6 C       0.0000000    1.5068270 *  2.4703186 *  2.8916158 *  4.1148599  
   7 C       1.5068270 *  0.0000000    1.3177323 *  2.4643039 *  3.5797090  
   8 C       2.4703186 *  1.3177323 *  0.0000000    1.5113904 *  2.4089165 *
   9 C       2.8916158 *  2.4643039 *  1.5113904 *  0.0000000    1.2238348 *
  10 O       4.1148599    3.5797090    2.4089165 *  1.2238348 *  0.0000000  
  11 H       2.4904082 *  3.3573887    4.3167726    4.7131783    5.8393910  
  12 H       2.3536902 *  2.3816355 *  3.0154071    3.5952986    4.6094333  
  13 H       3.2998084    4.3793440    4.8159813    4.4137604    5.2992675  
  14 H       3.3909482    3.3629982    2.9545221 *  2.3821376 *  2.8829768 *
  15 H       4.0291699    4.5578355    4.2874798    3.2820475    3.6634050  
  16 H       3.3681374    3.8901237    3.4959132    2.2021576 *  2.6380410 *
  17 H       2.1482435 *  3.4410002    3.9074169    3.4721536    4.4774545  
  18 H       1.0856772 *  2.1917755 *  3.3677348    3.9363799    5.1552706  
  19 H       2.2200007 *  1.0845687 *  2.0960032 *  3.4652222    4.4952226  
  20 H       3.4716590    2.1039951 *  1.0820789 *  2.2202018 *  2.6682359 *

               11 H         12 H         13 H         14 H         15 H     

   1 C       1.0850608 *  1.0831267 *  2.1256089 *  2.7331916 *  3.3888086  
   2 C       2.1326999 *  2.1306494 *  1.0838607 *  2.1286677 *  2.1361963 *
   3 C       3.3855120    2.7464970 *  2.1247970 *  1.0835493 *  1.0847303 *
   4 C       4.0430960    3.4901199    3.2632482    2.3782776 *  2.4672197 *
   5 C       3.3386541    3.2823250    3.0959344    3.2597432    3.3642069  
   6 C       2.4904082 *  2.3536902 *  3.2998084    3.3909482    4.0291699  
   7 C       3.3573887    2.3816355 *  4.3793440    3.3629982    4.5578355  
   8 C       4.3167726    3.0154071    4.8159813    2.9545221 *  4.2874798  
   9 C       4.7131783    3.5952986    4.4137604    2.3821376 *  3.2820475  
  10 O       5.8393910    4.6094333    5.2992675    2.8829768 *  3.6634050  
  11 H       0.0000000    1.8049750 *  2.4244796 *  3.7898906    4.2551085  
  12 H       1.8049750 *  0.0000000    3.0575231    2.6174723 *  3.7976582  
  13 H       2.4244796 *  3.0575231    0.0000000    3.0586491    2.4330920 *
  14 H       3.7898906    2.6174723 *  3.0586491    0.0000000    1.8042550 *
  15 H       4.2551085    3.7976582    2.4330920 *  1.8042550 *  0.0000000  
  16 H       4.9010087    4.4855281    3.6566503    2.9703663 *  2.4587382 *
  17 H       3.6072885    4.0188895    3.0609319    4.0332198    3.6954756  
  18 H       2.4670003 *  2.8941862 *  3.7429279    4.3972519    4.9287777  
  19 H       3.5943094    2.6731188 *  5.1041051    4.2111329    5.5191902  
  20 H       5.1709528    3.6948286    5.7962859    3.6091909    5.1048293  

               16 H         17 H         18 H         19 H         20 H     

   1 C       4.0505211    3.2348346    2.4525894 *  3.1719591    4.3101171  
   2 C       3.3670160    3.0989016    3.3918385    4.2735008    4.8158210  
   3 C       2.4705692 *  3.2736096    4.0362756    4.4738344    4.2646984  
   4 C       1.0861744 *  2.1470711 *  3.3681557    3.9141282    3.5368593  
   5 C       2.1363211 *  1.0831633 *  2.1382227 *  3.4068749    3.8999500  
   6 C       3.3681374    2.1482435 *  1.0856772 *  2.2200007 *  3.4716590  
   7 C       3.8901237    3.4410002    2.1917755 *  1.0845687 *  2.1039951 *
   8 C       3.4959132    3.9074169    3.3677348    2.0960032 *  1.0820789 *
   9 C       2.2021576 *  3.4721536    3.9363799    3.4652222    2.2202018 *
  10 O       2.6380410 *  4.4774545    5.1552706    4.4952226    2.6682359 *
  11 H       4.9010087    3.6072885    2.4670003 *  3.5943094    5.1709528  
  12 H       4.4855281    4.0188895    2.8941862 *  2.6731188 *  3.6948286  
  13 H       3.6566503    3.0609319    3.7429279    5.1041051    5.7962859  
  14 H       2.9703663 *  4.0332198    4.3972519    4.2111329    3.6091909  
  15 H       2.4587382 *  3.6954756    4.9287777    5.5191902    5.1048293  
  16 H       0.0000000    2.4615911 *  4.2578191    4.9713988    4.3822527  
  17 H       2.4615911 *  0.0000000    2.4680291 *  4.2937355    4.9714261  
  18 H       4.2578191    2.4680291 *  0.0000000    2.4708701 *  4.2726472  
  19 H       4.9713988    4.2937355    2.4708701 *  0.0000000    2.4562597 *
  20 H       4.3822527    4.9714261    4.2726472    2.4562597 *  0.0000000  

  * ... LESS THAN  3.000


     ATOMIC BASIS SET
     ----------------
 THE CONTRACTED PRIMITIVE FUNCTIONS HAVE BEEN UNNORMALIZED
 THE CONTRACTED BASIS FUNCTIONS ARE NOW NORMALIZED TO UNITY

  SHELL TYPE  PRIMITIVE        EXPONENT          CONTRACTION COEFFICIENT(S)

 C         

      1   S       1            71.6168373    0.154328967295
      1   S       2            13.0450963    0.535328142282
      1   S       3             3.5305122    0.444634542185

      2   L       4             2.9412494   -0.099967229187    0.155916274999
      2   L       5             0.6834831    0.399512826089    0.607683718598
      2   L       6             0.2222899    0.700115468880    0.391957393099

 C         

      3   S       7            71.6168373    0.154328967295
      3   S       8            13.0450963    0.535328142282
      3   S       9             3.5305122    0.444634542185

      4   L      10             2.9412494   -0.099967229187    0.155916274999
      4   L      11             0.6834831    0.399512826089    0.607683718598
      4   L      12             0.2222899    0.700115468880    0.391957393099

 C         

      5   S      13            71.6168373    0.154328967295
      5   S      14            13.0450963    0.535328142282
      5   S      15             3.5305122    0.444634542185

      6   L      16             2.9412494   -0.099967229187    0.155916274999
      6   L      17             0.6834831    0.399512826089    0.607683718598
      6   L      18             0.2222899    0.700115468880    0.391957393099

 C         

      7   S      19            71.6168373    0.154328967295
      7   S      20            13.0450963    0.535328142282
      7   S      21             3.5305122    0.444634542185

      8   L      22             2.9412494   -0.099967229187    0.155916274999
      8   L      23             0.6834831    0.399512826089    0.607683718598
      8   L      24             0.2222899    0.700115468880    0.391957393099

 C         

      9   S      25            71.6168373    0.154328967295
      9   S      26            13.0450963    0.535328142282
      9   S      27             3.5305122    0.444634542185

     10   L      28             2.9412494   -0.099967229187    0.155916274999
     10   L      29             0.6834831    0.399512826089    0.607683718598
     10   L      30             0.2222899    0.700115468880    0.391957393099

 C         

     11   S      31            71.6168373    0.154328967295
     11   S      32            13.0450963    0.535328142282
     11   S      33             3.5305122    0.444634542185

     12   L      34             2.9412494   -0.099967229187    0.155916274999
     12   L      35             0.6834831    0.399512826089    0.607683718598
     12   L      36             0.2222899    0.700115468880    0.391957393099

 C         

     13   S      37            71.6168373    0.154328967295
     13   S      38            13.0450963    0.535328142282
     13   S      39             3.5305122    0.444634542185

     14   L      40             2.9412494   -0.099967229187    0.155916274999
     14   L      41             0.6834831    0.399512826089    0.607683718598
     14   L      42             0.2222899    0.700115468880    0.391957393099

 C         

     15   S      43            71.6168373    0.154328967295
     15   S      44            13.0450963    0.535328142282
     15   S      45             3.5305122    0.444634542185

     16   L      46             2.9412494   -0.099967229187    0.155916274999
     16   L      47             0.6834831    0.399512826089    0.607683718598
     16   L      48             0.2222899    0.700115468880    0.391957393099

 C         

     17   S      49            71.6168373    0.154328967295
     17   S      50            13.0450963    0.535328142282
     17   S      51             3.5305122    0.444634542185

     18   L      52             2.9412494   -0.099967229187    0.155916274999
     18   L      53             0.6834831    0.399512826089    0.607683718598
     18   L      54             0.2222899    0.700115468880    0.391957393099

 O         

     19   S      55           130.7093214    0.154328967295
     19   S      56            23.8088661    0.535328142282
     19   S      57             6.4436083    0.444634542185

     20   L      58             5.0331513   -0.099967229187    0.155916274999
     20   L      59             1.1695961    0.399512826089    0.607683718598
     20   L      60             0.3803890    0.700115468880    0.391957393099

 H         

     21   S      61             3.4252509    0.154328967295
     21   S      62             0.6239137    0.535328142282
     21   S      63             0.1688554    0.444634542185

 H         

     22   S      64             3.4252509    0.154328967295
     22   S      65             0.6239137    0.535328142282
     22   S      66             0.1688554    0.444634542185

 H         

     23   S      67             3.4252509    0.154328967295
     23   S      68             0.6239137    0.535328142282
     23   S      69             0.1688554    0.444634542185

 H         

     24   S      70             3.4252509    0.154328967295
     24   S      71             0.6239137    0.535328142282
     24   S      72             0.1688554    0.444634542185

 H         

     25   S      73             3.4252509    0.154328967295
     25   S      74             0.6239137    0.535328142282
     25   S      75             0.1688554    0.444634542185

 H         

     26   S      76             3.4252509    0.154328967295
     26   S      77             0.6239137    0.535328142282
     26   S      78             0.1688554    0.444634542185

 H         

     27   S      79             3.4252509    0.154328967295
     27   S      80             0.6239137    0.535328142282
     27   S      81             0.1688554    0.444634542185

 H         

     28   S      82             3.4252509    0.154328967295
     28   S      83             0.6239137    0.535328142282
     28   S      84             0.1688554    0.444634542185

 H         

     29   S      85             3.4252509    0.154328967295
     29   S      86             0.6239137    0.535328142282
     29   S      87             0.1688554    0.444634542185

 H         

     30   S      88             3.4252509    0.154328967295
     30   S      89             0.6239137    0.535328142282
     30   S      90             0.1688554    0.444634542185

 TOTAL NUMBER OF BASIS SET SHELLS             =   30
 NUMBER OF CARTESIAN GAUSSIAN BASIS FUNCTIONS =   60
 NUMBER OF ELECTRONS                          =   72
 CHARGE OF MOLECULE                           =    0
 SPIN MULTIPLICITY                            =    1
 NUMBER OF OCCUPIED ORBITALS (ALPHA)          =   36
 NUMBER OF OCCUPIED ORBITALS (BETA )          =   36
 TOTAL NUMBER OF ATOMS                        =   20
 THE NUCLEAR REPULSION ENERGY IS      509.6730596657

     $CONTRL OPTIONS
     ---------------
 SCFTYP=RHF          RUNTYP=SADPOINT     EXETYP=RUN     
 MPLEVL=       0     CITYP =NONE         CCTYP =NONE         VBTYP =NONE    
 DFTTYP=NONE         TDDFT =NONE    
 MULT  =       1     ICHARG=       0     NZVAR =       0     COORD =UNIQUE  
 PP    =NONE         RELWFN=NONE         LOCAL =NONE         NUMGRD=       F
 ISPHER=      -1     NOSYM =       0     MAXIT =      30     UNITS =ANGS    
 PLTORB=       F     MOLPLT=       F     AIMPAC=       F     FRIEND=        
 NPRINT=       7     IREST =       0     GEOM  =INPUT   
 NORMF =       0     NORMP =       0     ITOL  =      20     ICUT  =       9
 INTTYP=BEST         GRDTYP=BEST         QMTTOL= 1.0E-06

     $SYSTEM OPTIONS
     ---------------
  REPLICATED MEMORY=     1000000 WORDS (ON EVERY NODE).
 DISTRIBUTED MEMDDI=           0 MILLION WORDS IN AGGREGATE,
 MEMDDI DISTRIBUTED OVER   1 PROCESSORS IS           0 WORDS/PROCESSOR.
 TOTAL MEMORY REQUESTED ON EACH PROCESSOR=     1000000 WORDS.
 TIMLIM=      525600.00 MINUTES, OR     365.0 DAYS.
 PARALL= F  BALTYP=  DLB     KDIAG=    0  COREFL= F
 MXSEQ2=     300 MXSEQ3=     150  mem10=         0

          ----------------
          PROPERTIES INPUT
          ----------------

     MOMENTS            FIELD           POTENTIAL          DENSITY
 IEMOM =       1   IEFLD =       0   IEPOT =       0   IEDEN =       0
 WHERE =COMASS     WHERE =NUCLEI     WHERE =NUCLEI     WHERE =NUCLEI  
 OUTPUT=BOTH       OUTPUT=BOTH       OUTPUT=BOTH       OUTPUT=BOTH    
 IEMINT=       0   IEFINT=       0                     IEDINT=       0
                                                       MORB  =       0
          EXTRAPOLATION IN EFFECT
          SOSCF IN EFFECT
 ORBITAL PRINTING OPTION: NPREO=     1    60     2     1

     -------------------------------
     INTEGRAL TRANSFORMATION OPTIONS
     -------------------------------
     NWORD  =            0
     CUTOFF = 1.0E-09     MPTRAN =       0
     DIRTRF =       F     AOINTS =DUP     

          ----------------------
          INTEGRAL INPUT OPTIONS
          ----------------------
 NOPK  =       1 NORDER=       0 SCHWRZ=       T

     ------------------------------------------
     THE POINT GROUP IS C1 , NAXIS= 0, ORDER= 1
     ------------------------------------------

     DIMENSIONS OF THE SYMMETRY SUBSPACES ARE
 A   =   60

 ..... DONE SETTING UP THE RUN .....
 STEP CPU TIME =     0.02 TOTAL CPU TIME =          0.0 (      0.0 MIN)
 TOTAL WALL CLOCK TIME=          0.1 SECONDS, CPU UTILIZATION IS    40.00%


          -----------------------------
          STATIONARY POINT LOCATION RUN
          -----------------------------

 OBTAINING INITIAL HESSIAN, HESS=CALC    

     ---------------------------------
     HESSIAN MATRIX CONTROL PARAMETERS
     ---------------------------------
     METHOD=ANALYTIC   NVIB  =       2   VIBSIZ= 0.01000
     RDHESS=       F   PURIFY=       F   PRTIFC=       F
     VIBANL=       F   DECOMP=       F   PROJCT=       F
     SCLFAC= 1.00000   PRTSCN=       F   NPRT  =       0
     PULCOR=       F   NPUN  =       0   REDOVB=       T
     HSSTYP=GENERAL 
 Old integral subroutine is used

     ------------------------------
     CPHF RESPONSE SOLUTION OPTIONS
     ------------------------------
     POLAR  =       F     NWORD  =       0
     CPHF   =AO      

          ********************
          1 ELECTRON INTEGRALS
          ********************
 ...... END OF ONE-ELECTRON INTEGRALS ......
 STEP CPU TIME =     0.02 TOTAL CPU TIME =          0.0 (      0.0 MIN)
 TOTAL WALL CLOCK TIME=          0.1 SECONDS, CPU UTILIZATION IS    57.14%

          -------------
          GUESS OPTIONS
          -------------
          GUESS =HUCKEL            NORB  =       0          NORDER=       0
          MIX   =       F          PRTMO =       F          PUNMO =       F
          TOLZ  = 1.0E-08          TOLE  = 1.0E-05
          SYMDEN=       F          PURIFY=       F

 INITIAL GUESS ORBITALS GENERATED BY HUCKEL   ROUTINE.
 HUCKEL GUESS REQUIRES     53820 WORDS.

 SYMMETRIES FOR INITIAL GUESS ORBITALS FOLLOW.   BOTH SET(S).
    36 ORBITALS ARE OCCUPIED (   10 CORE ORBITALS).
    11=A       12=A       13=A       14=A       15=A       16=A       17=A   
    18=A       19=A       20=A       21=A       22=A       23=A       24=A   
    25=A       26=A       27=A       28=A       29=A       30=A       31=A   
    32=A       33=A       34=A       35=A       36=A       37=A       38=A   
    39=A       40=A       41=A       42=A       43=A       44=A       45=A   
    46=A   
 ...... END OF INITIAL ORBITAL SELECTION ......
 STEP CPU TIME =     0.02 TOTAL CPU TIME =          0.1 (      0.0 MIN)
 TOTAL WALL CLOCK TIME=          0.1 SECONDS, CPU UTILIZATION IS    66.67%

                    ----------------------
                    AO INTEGRAL TECHNOLOGY
                    ----------------------
     S,P,L SHELL ROTATED AXIS INTEGRALS, REPROGRAMMED BY
        KAZUYA ISHIMURA (IMS) AND JOSE SIERRA (SYNSTAR).
     S,P,D,L SHELL ROTATED AXIS INTEGRALS PROGRAMMED BY
        KAZUYA ISHIMURA (INSTITUTE FOR MOLECULAR SCIENCE).
     S,P,D,F,G SHELL TO TOTAL QUARTET ANGULAR MOMENTUM SUM 5,
        ERIC PROGRAM BY GRAHAM FLETCHER (ELORET AND NASA ADVANCED
        SUPERCOMPUTING DIVISION, AMES RESEARCH CENTER).
     S,P,D,F,G,L SHELL GENERAL RYS QUADRATURE PROGRAMMED BY
        MICHEL DUPUIS (PACIFIC NORTHWEST NATIONAL LABORATORY).

          --------------------
          2 ELECTRON INTEGRALS
          --------------------

 THE -PK- OPTION IS OFF, THE INTEGRALS ARE NOT IN SUPERMATRIX FORM.
 STORING   15000 INTEGRALS/RECORD ON DISK, USING 12 BYTES/INTEGRAL.
 TWO ELECTRON INTEGRAL EVALUATION REQUIRES   89821 WORDS OF MEMORY.
 SCHWARZ INEQUALITY OVERHEAD:      1797 INTEGRALS, T=        0.00
 II,JST,KST,LST =  1  1  1  1 NREC =         1 INTLOC =    1
 II,JST,KST,LST =  2  1  1  1 NREC =         1 INTLOC =    2
 II,JST,KST,LST =  3  1  1  1 NREC =         1 INTLOC =   34
 II,JST,KST,LST =  4  1  1  1 NREC =         1 INTLOC =  144
 II,JST,KST,LST =  5  1  1  1 NREC =         1 INTLOC = 1366
 II,JST,KST,LST =  6  1  1  1 NREC =         1 INTLOC = 1961
 II,JST,KST,LST =  7  1  1  1 NREC =         1 INTLOC = 6862
 II,JST,KST,LST =  8  1  1  1 NREC =         1 INTLOC = 8481
 II,JST,KST,LST =  9  1  1  1 NREC =         2 INTLOC = 5905
 II,JST,KST,LST = 10  1  1  1 NREC =         2 INTLOC = 9696
 II,JST,KST,LST = 11  1  1  1 NREC =         4 INTLOC = 5059
 II,JST,KST,LST = 12  1  1  1 NREC =         4 INTLOC =12129
 II,JST,KST,LST = 13  1  1  1 NREC =         7 INTLOC =12193
 II,JST,KST,LST = 14  1  1  1 NREC =         8 INTLOC = 8449
 II,JST,KST,LST = 15  1  1  1 NREC =        13 INTLOC = 5681
 II,JST,KST,LST = 16  1  1  1 NREC =        14 INTLOC = 8147
 II,JST,KST,LST = 17  1  1  1 NREC =        21 INTLOC =11991
 II,JST,KST,LST = 18  1  1  1 NREC =        23 INTLOC = 8072
 II,JST,KST,LST = 19  1  1  1 NREC =        34 INTLOC =  963
 II,JST,KST,LST = 20  1  1  1 NREC =        35 INTLOC =10984
 II,JST,KST,LST = 21  1  1  1 NREC =        47 INTLOC =13885
 II,JST,KST,LST = 22  1  1  1 NREC =        51 INTLOC = 9755
 II,JST,KST,LST = 23  1  1  1 NREC =        55 INTLOC =14059
 II,JST,KST,LST = 24  1  1  1 NREC =        60 INTLOC = 3069
 II,JST,KST,LST = 25  1  1  1 NREC =        65 INTLOC = 1933
 II,JST,KST,LST = 26  1  1  1 NREC =        70 INTLOC = 2735
 II,JST,KST,LST = 27  1  1  1 NREC =        75 INTLOC = 9517
 II,JST,KST,LST = 28  1  1  1 NREC =        81 INTLOC = 4703
 II,JST,KST,LST = 29  1  1  1 NREC =        87 INTLOC = 2596
 II,JST,KST,LST = 30  1  1  1 NREC =        93 INTLOC = 5360
 SCHWARZ INEQUALITY TEST SKIPPED       24195 INTEGRAL BLOCKS.
 TOTAL NUMBER OF NONZERO TWO-ELECTRON INTEGRALS =             1483007
         99 INTEGRAL RECORDS WERE STORED ON DISK FILE  8.
  ...... END OF TWO-ELECTRON INTEGRALS .....
 STEP CPU TIME =     0.26 TOTAL CPU TIME =          0.3 (      0.0 MIN)
 TOTAL WALL CLOCK TIME=          0.4 SECONDS, CPU UTILIZATION IS    88.89%

          --------------------------
                 RHF SCF CALCULATION
          --------------------------

     NUCLEAR ENERGY =       509.6730596657
     MAXIT =   30     NPUNCH=    2
     EXTRAP=T  DAMP=F  SHIFT=F  RSTRCT=F  DIIS=F  DEM=F  SOSCF=T
     DENSITY MATRIX CONV=  1.00E-05
     SOSCF WILL OPTIMIZE     864 ORBITAL ROTATIONS, SOGTOL=   0.250
     MEMORY REQUIRED FOR RHF ITERS=     59496 WORDS.

 ITER EX DEM     TOTAL ENERGY        E CHANGE  DENSITY CHANGE     ORB. GRAD
   1  0  0     -415.5233192175  -415.5233192175   0.524937344   0.000000000
          ---------------START SECOND ORDER SCF---------------
   2  1  0     -416.0288475224    -0.5055283049   0.245218753   0.064720157
   3  2  0     -416.0582523686    -0.0294048462   0.110621019   0.049268470
   4  3  0     -416.0921771765    -0.0339248079   0.017589487   0.007298148
   5  4  0     -416.0930434440    -0.0008662676   0.004872750   0.002938839
   6  5  0     -416.0931515169    -0.0001080728   0.002064472   0.000763333
   7  6  0     -416.0931640546    -0.0000125377   0.000551598   0.000261645
   8  7  0     -416.0931659088    -0.0000018542   0.000256173   0.000073023
   9  8  0     -416.0931660863    -0.0000001775   0.000145468   0.000023571
  10  9  0     -416.0931661181    -0.0000000318   0.000055014   0.000011428
  11 10  0     -416.0931661232    -0.0000000051   0.000028019   0.000003473
  12 11  0     -416.0931661241    -0.0000000010   0.000009123   0.000001377
  13 12  0     -416.0931661243    -0.0000000001   0.000005032   0.000000512

          -----------------
          DENSITY CONVERGED
          -----------------
     TIME TO FORM FOCK OPERATORS=       0.4 SECONDS (       0.0 SEC/ITER)
     TIME TO SOLVE SCF EQUATIONS=       0.1 SECONDS (       0.0 SEC/ITER)

 FINAL RHF ENERGY IS     -416.0931661243 AFTER  13 ITERATIONS

          ------------
          EIGENVECTORS
          ------------

                      1          2          3          4          5
                  -20.2612   -11.1181   -11.0543   -11.0493   -11.0456
                     A          A          A          A          A   
    1  C  1  S   -0.000000   0.000023  -0.030496  -0.005702  -0.085166
    2  C  1  S    0.000003  -0.000004  -0.003830   0.000016  -0.002989
    3  C  1  X    0.000000   0.000009  -0.001843  -0.000157   0.000097
    4  C  1  Y   -0.000003   0.000012  -0.000111  -0.000057  -0.000136
    5  C  1  Z    0.000000  -0.000002  -0.001637  -0.000259   0.000009
    6  C  2  S   -0.000000   0.000015  -0.000572   0.000062   0.003853
    7  C  2  S    0.000010  -0.000030   0.000351   0.000059  -0.006044
    8  C  2  X   -0.000006   0.000054   0.000217   0.000051   0.000418
    9  C  2  Y    0.000004  -0.000020  -0.000065   0.000033  -0.004078
   10  C  2  Z    0.000006  -0.000025  -0.000090   0.000005  -0.002117
   11  C  3  S   -0.000005  -0.000222  -0.000699   0.000652   0.958602
   12  C  3  S   -0.000000   0.000304  -0.000021   0.000046   0.035525
   13  C  3  X    0.000025  -0.000185  -0.000072   0.000002  -0.000370
   14  C  3  Y    0.000026   0.000015   0.000026   0.000025  -0.000419
   15  C  3  Z    0.000029  -0.000196   0.000013   0.000011  -0.000820
   16  C  4  S   -0.000024  -0.001607  -0.004048  -0.005413  -0.240440
   17  C  4  S    0.000270  -0.005398  -0.000068  -0.000229  -0.011280
   18  C  4  X   -0.000123  -0.002084  -0.000049  -0.000119   0.001459
   19  C  4  Y    0.000390  -0.003218   0.000013   0.000019   0.000198
   20  C  4  Z    0.000247   0.001249   0.000184   0.000129   0.001419
   21  C  5  S    0.000004  -0.000277   0.003949  -0.001148  -0.002009
   22  C  5  S    0.000033   0.000070  -0.006881  -0.000015   0.001796
   23  C  5  X   -0.000064  -0.000023  -0.002024  -0.000120  -0.000502
   24  C  5  Y   -0.000017  -0.000014   0.001027  -0.000045   0.001093
   25  C  5  Z    0.000026  -0.000010   0.003962   0.000064   0.000132
   26  C  6  S    0.000003  -0.000254   0.991336   0.024231  -0.003068
   27  C  6  S    0.000007  -0.000064   0.036233  -0.004858   0.000114
   28  C  6  X    0.000018  -0.000014   0.000846  -0.002175  -0.000139
   29  C  6  Y   -0.000036  -0.000107   0.000580  -0.003173  -0.000013
   30  C  6  Z   -0.000007  -0.000015   0.001413   0.001561  -0.000123
   31  C  7  S    0.000005  -0.000272  -0.023436   0.991729  -0.002397
   32  C  7  S    0.000054   0.000111  -0.006871   0.035857  -0.000058
   33  C  7  X    0.000046  -0.000063   0.002203  -0.000252  -0.000034
   34  C  7  Y    0.000049  -0.000035   0.003155   0.001602  -0.000001
   35  C  7  Z   -0.000037   0.000054  -0.001956   0.000415   0.000036
   36  C  8  S   -0.000025  -0.001005  -0.001146   0.019707   0.000524
   37  C  8  S    0.000270  -0.005689   0.000345  -0.007398   0.000039
   38  C  8  X    0.000034   0.002682  -0.000035  -0.000551  -0.000048
   39  C  8  Y    0.000508  -0.001202  -0.000173   0.004336   0.000001
   40  C  8  Z    0.000069  -0.002893   0.000057   0.001325  -0.000022
   41  C  9  S    0.000548   0.992564   0.000267   0.000342  -0.000396
   42  C  9  S   -0.007195   0.032729  -0.000008   0.000149   0.001521
   43  C  9  X    0.000866  -0.000031  -0.000045  -0.000007  -0.000559
   44  C  9  Y   -0.005986   0.000423   0.000104   0.000149  -0.000824
   45  C  9  Z   -0.002036  -0.000038   0.000088   0.000032   0.000424
   46  O 10  S    0.994267   0.000162   0.000005   0.000013  -0.000003
   47  O 10  S    0.025993  -0.005790  -0.000052  -0.000115  -0.000031
   48  O 10  X    0.000756  -0.000237  -0.000003  -0.000021  -0.000003
   49  O 10  Y   -0.005261   0.001612   0.000034   0.000052   0.000031
   50  O 10  Z   -0.001799   0.000571   0.000004   0.000032  -0.000041
   51  H 11  S   -0.000002   0.000002   0.000358  -0.000012   0.000496
   52  H 12  S   -0.000002   0.000006   0.000363  -0.000951   0.000563
   53  H 13  S   -0.000002   0.000006  -0.000001   0.000001   0.000038
   54  H 14  S    0.000080  -0.001059   0.000005  -0.000042  -0.006736
   55  H 15  S   -0.000006  -0.000035  -0.000017  -0.000014  -0.006696
   56  H 16  S   -0.000179  -0.000014  -0.000090  -0.000023   0.001821
   57  H 17  S   -0.000020  -0.000052   0.000080  -0.000080  -0.000014
   58  H 18  S   -0.000016  -0.000026  -0.006924  -0.000128   0.000018
   59  H 19  S   -0.000021  -0.000038   0.000241  -0.006826   0.000025
   60  H 20  S   -0.000192   0.000012  -0.000037   0.000011   0.000014

                      6          7          8          9         10
                  -11.0452   -11.0444   -11.0258   -11.0184   -11.0121
                     A          A          A          A          A   
    1  C  1  S    0.987888   0.016854  -0.000217   0.000974  -0.003463
    2  C  1  S    0.035878   0.000647   0.000047   0.000289  -0.007235
    3  C  1  X   -0.001488  -0.000064   0.000028  -0.000042   0.003675
    4  C  1  Y    0.000316  -0.000059   0.000015   0.000033  -0.001363
    5  C  1  Z   -0.000702  -0.000071  -0.000044  -0.000079  -0.002484
    6  C  2  S    0.004585   0.000520   0.000105  -0.018460   0.991933
    7  C  2  S   -0.007346  -0.001675   0.000028  -0.001165   0.036727
    8  C  2  X   -0.003576  -0.000009   0.000005  -0.000495   0.002038
    9  C  2  Y    0.001015  -0.000897  -0.000003   0.000062   0.000182
   10  C  2  Z    0.002223  -0.000376   0.000008  -0.000503   0.001516
   11  C  3  S    0.078527   0.243602  -0.000271   0.000891  -0.003418
   12  C  3  S    0.003070   0.006229   0.000087   0.000298  -0.007232
   13  C  3  X   -0.000134  -0.002042  -0.000002  -0.000048  -0.000146
   14  C  3  Y   -0.000014  -0.000011   0.000079   0.000016   0.004191
   15  C  3  Z    0.000005  -0.001930  -0.000018  -0.000053   0.001983
   16  C  4  S   -0.037285   0.961823   0.001491  -0.004612   0.000545
   17  C  4  S   -0.001537   0.034100   0.000248  -0.007296   0.000019
   18  C  4  X    0.000100   0.001869   0.000014  -0.001842  -0.000022
   19  C  4  Y    0.000023  -0.000668   0.000023   0.004191   0.000151
   20  C  4  Z    0.000159   0.001171   0.000061   0.000507   0.000054
   21  C  5  S   -0.001016   0.005027  -0.004280   0.991918   0.018699
   22  C  5  S    0.000150  -0.006689  -0.000268   0.036682   0.000198
   23  C  5  X   -0.000097   0.001784  -0.000104  -0.001501   0.000499
   24  C  5  Y    0.000173  -0.003986  -0.000171   0.000551   0.000055
   25  C  5  Z    0.000051  -0.000547   0.000098  -0.001877   0.000364
   26  C  6  S    0.031291   0.004833   0.000710  -0.003139   0.000405
   27  C  6  S   -0.001560   0.000170   0.000406  -0.007218   0.000020
   28  C  6  X    0.001963   0.000143   0.000137   0.002028   0.000105
   29  C  6  Y    0.000107  -0.000191   0.000039  -0.000960  -0.000059
   30  C  6  Z    0.001620   0.000068  -0.000071  -0.004013  -0.000103
   31  C  7  S    0.004720   0.005149  -0.019189   0.001213  -0.000076
   32  C  7  S    0.000131   0.000116  -0.008919   0.000147   0.000008
   33  C  7  X    0.000004   0.000134   0.000553   0.000000  -0.000037
   34  C  7  Y    0.000026  -0.000034  -0.004469  -0.000091   0.000023
   35  C  7  Z   -0.000076  -0.000107  -0.001367  -0.000157  -0.000015
   36  C  8  S    0.000344  -0.001221   0.991968   0.004375  -0.000031
   37  C  8  S    0.000019   0.000065   0.036541   0.000092  -0.000014
   38  C  8  X   -0.000017   0.000022   0.000161   0.000051   0.000000
   39  C  8  Y   -0.000003   0.000042  -0.001856   0.000133   0.000004
   40  C  8  Z   -0.000019   0.000013  -0.000388  -0.000140  -0.000002
   41  C  9  S   -0.000095   0.002579   0.001994   0.000339  -0.000013
   42  C  9  S    0.000237  -0.005468  -0.005878   0.000129  -0.000010
   43  C  9  X   -0.000090   0.002038  -0.002795  -0.000139  -0.000007
   44  C  9  Y   -0.000126   0.003128   0.001058   0.000088  -0.000008
   45  C  9  Z    0.000065  -0.001618   0.002933   0.000010  -0.000049
   46  O 10  S    0.000001  -0.000022  -0.000022   0.000009   0.000000
   47  O 10  S   -0.000010   0.000244   0.000249  -0.000084   0.000005
   48  O 10  X   -0.000001  -0.000101   0.000144   0.000024   0.000006
   49  O 10  Y    0.000009  -0.000185  -0.000071   0.000042  -0.000004
   50  O 10  Z   -0.000007   0.000088  -0.000154   0.000018   0.000003
   51  H 11  S   -0.006893  -0.000160  -0.000010  -0.000031   0.000107
   52  H 12  S   -0.006911  -0.000131  -0.000105  -0.000057   0.000014
   53  H 13  S    0.000051   0.000009  -0.000004   0.000141  -0.007002
   54  H 14  S   -0.000603  -0.001567  -0.000210  -0.000044   0.000020
   55  H 15  S   -0.000658  -0.001565  -0.000018  -0.000040   0.000105
   56  H 16  S    0.000253  -0.006695  -0.000099   0.000120  -0.000032
   57  H 17  S   -0.000001   0.000068  -0.000031  -0.006920  -0.000118
   58  H 18  S   -0.000085  -0.000155  -0.000094   0.000106  -0.000042
   59  H 19  S    0.000012  -0.000092   0.000266  -0.000106  -0.000003
   60  H 20  S   -0.000001  -0.000067  -0.006868  -0.000089   0.000001

                     11         12         13         14         15
                   -1.3129    -1.0917    -1.0182    -0.9718    -0.9334
                     A          A          A          A          A   
    1  C  1  S   -0.000703  -0.056420  -0.102733   0.069565  -0.076337
    2  C  1  S    0.001711   0.149971   0.276468  -0.191482   0.219023
    3  C  1  X    0.000023  -0.006742  -0.071011   0.032141   0.024540
    4  C  1  Y    0.000346   0.014754   0.025842  -0.015030  -0.011739
    5  C  1  Z    0.000401   0.024427   0.032219  -0.003033   0.003292
    6  C  2  S   -0.001044  -0.058415  -0.147815   0.066227   0.012173
    7  C  2  S    0.002309   0.145764   0.383134  -0.175425  -0.032718
    8  C  2  X    0.000545   0.030852   0.050771  -0.029354   0.044191
    9  C  2  Y    0.000751   0.013624   0.035057   0.003955  -0.070251
   10  C  2  Z    0.000531   0.005719   0.009695   0.018511  -0.051565
   11  C  3  S   -0.003134  -0.051107  -0.114863   0.018430   0.091591
   12  C  3  S    0.007674   0.135744   0.310168  -0.047033  -0.260638
   13  C  3  X    0.002291   0.015822  -0.000208   0.016792  -0.001942
   14  C  3  Y    0.001101  -0.024010  -0.066220   0.030165  -0.005504
   15  C  3  Z    0.000779  -0.006649  -0.040722   0.039473  -0.004441
   16  C  4  S   -0.021440  -0.087686  -0.008640  -0.125943   0.084098
   17  C  4  S    0.053622   0.230027   0.026268   0.348117  -0.241666
   18  C  4  X    0.014688   0.033819  -0.031539   0.039249  -0.000702
   19  C  4  Y    0.021078  -0.038675  -0.004785  -0.063044  -0.055050
   20  C  4  Z   -0.009080  -0.024701  -0.005746   0.010165   0.012821
   21  C  5  S   -0.005571  -0.108609   0.008434  -0.128280  -0.047930
   22  C  5  S    0.012750   0.273119  -0.021866   0.342547   0.130774
   23  C  5  X   -0.001079   0.000700  -0.023222  -0.035237   0.053006
   24  C  5  Y    0.005697   0.035611  -0.000506   0.057950  -0.082619
   25  C  5  Z   -0.001080  -0.055506   0.010801  -0.002439  -0.079219
   26  C  6  S   -0.003225  -0.112727   0.031044  -0.020115  -0.131097
   27  C  6  S    0.007685   0.296995  -0.082818   0.051491   0.372709
   28  C  6  X   -0.000119  -0.007574  -0.041270  -0.047887  -0.004810
   29  C  6  Y    0.002669   0.048728  -0.034830  -0.017091  -0.017790
   30  C  6  Z    0.001173   0.029207  -0.003070   0.097333   0.019396
   31  C  7  S   -0.006025  -0.103316   0.093465   0.105313  -0.008337
   32  C  7  S    0.014334   0.263300  -0.245732  -0.283103   0.026809
   33  C  7  X   -0.002145  -0.037785   0.009761  -0.003396  -0.025436
   34  C  7  Y    0.005709   0.015190  -0.050861  -0.079283  -0.127872
   35  C  7  Z    0.003082   0.037524  -0.026270  -0.000697   0.000631
   36  C  8  S   -0.021743  -0.081432   0.091463   0.105531   0.086812
   37  C  8  S    0.052869   0.204541  -0.237299  -0.279862  -0.235753
   38  C  8  X   -0.018729  -0.011694  -0.001467  -0.018947   0.023940
   39  C  8  Y    0.006045  -0.062239   0.058936   0.063172  -0.003677
   40  C  8  Z    0.019467  -0.000734   0.008035   0.034750  -0.022271
   41  C  9  S   -0.127581  -0.035759   0.022139  -0.008441   0.070168
   42  C  9  S    0.295700   0.099328  -0.063440   0.023621  -0.207168
   43  C  9  X   -0.021614   0.009084  -0.039934  -0.067693  -0.007854
   44  C  9  Y    0.144081  -0.086719   0.029822  -0.048462   0.115019
   45  C  9  Z    0.048717  -0.028490   0.036421   0.062376   0.041729
   46  O 10  S   -0.214497   0.038238  -0.015263   0.006393  -0.049562
   47  O 10  S    0.749419  -0.142706   0.058504  -0.024992   0.198095
   48  O 10  X    0.022055  -0.001823  -0.008358  -0.017005   0.000700
   49  O 10  Y   -0.155632   0.005955  -0.000887  -0.010337   0.023463
   50  O 10  Z   -0.053491   0.002632   0.005067   0.016801   0.008121
   51  H 11  S    0.000185   0.028694   0.060134  -0.048130   0.070689
   52  H 12  S    0.000422   0.037076   0.059979  -0.057592   0.064818
   53  H 13  S    0.000306   0.028996   0.087658  -0.042347  -0.008030
   54  H 14  S    0.003456   0.031875   0.071639  -0.011800  -0.082289
   55  H 15  S    0.001284   0.025217   0.068217  -0.006579  -0.078881
   56  H 16  S    0.008816   0.040036   0.010973   0.089828  -0.070811
   57  H 17  S    0.001521   0.051064  -0.000181   0.088612   0.040571
   58  H 18  S    0.000820   0.055681  -0.016067   0.008965   0.119133
   59  H 19  S    0.001621   0.049411  -0.055414  -0.078124   0.014405
   60  H 20  S    0.008802   0.035058  -0.052353  -0.075068  -0.064690

                     16         17         18         19         20
                   -0.8550    -0.7742    -0.7531    -0.7105    -0.6556
                     A          A          A          A          A   
    1  C  1  S   -0.132743   0.035948  -0.009404   0.068967  -0.004019
    2  C  1  S    0.385034  -0.111695   0.033969  -0.220746   0.011403
    3  C  1  X   -0.035437  -0.069904   0.070232  -0.128407  -0.011031
    4  C  1  Y   -0.020081  -0.001542  -0.006277   0.001829   0.146381
    5  C  1  Z   -0.039391   0.066587  -0.021057   0.149096   0.000588
    6  C  2  S   -0.000761  -0.055339   0.046542  -0.115119   0.004077
    7  C  2  S    0.002081   0.165220  -0.140843   0.355055  -0.015592
    8  C  2  X    0.091665  -0.027710   0.014444  -0.071936   0.083140
    9  C  2  Y   -0.133586  -0.017647   0.049245  -0.108792   0.095777
   10  C  2  Z   -0.107922   0.030132  -0.011131   0.073278  -0.053024
   11  C  3  S    0.132123   0.014093  -0.036899   0.067774  -0.001452
   12  C  3  S   -0.383365  -0.048101   0.114152  -0.217303   0.003252
   13  C  3  X    0.051057  -0.021403   0.005179   0.005919   0.087058
   14  C  3  Y   -0.006225  -0.082258   0.089682  -0.189589  -0.003914
   15  C  3  Z    0.016560  -0.036074  -0.014740  -0.015733  -0.103128
   16  C  4  S   -0.062512   0.081794   0.041386  -0.015603   0.028200
   17  C  4  S    0.180612  -0.253412  -0.121204   0.049816  -0.097393
   18  C  4  X    0.058991   0.035946   0.040842   0.066122   0.123852
   19  C  4  Y    0.028355  -0.131838   0.158971   0.104697  -0.094550
   20  C  4  Z    0.020801  -0.042006  -0.107963  -0.015158  -0.165809
   21  C  5  S    0.006545  -0.095485   0.057772   0.047487  -0.026673
   22  C  5  S   -0.018827   0.283232  -0.175332  -0.145297   0.080791
   23  C  5  X   -0.042067   0.009007   0.104033   0.065514   0.026237
   24  C  5  Y    0.065402  -0.101208  -0.047210   0.055171   0.128584
   25  C  5  Z    0.051597  -0.019831  -0.127771  -0.049656  -0.097688
   26  C  6  S    0.071515   0.007700  -0.084262  -0.031719   0.032987
   27  C  6  S   -0.206936  -0.029001   0.259975   0.098714  -0.110886
   28  C  6  X   -0.059588  -0.101665   0.013198   0.079968  -0.087432
   29  C  6  Y   -0.006728  -0.039133  -0.064115   0.033427   0.274711
   30  C  6  Z   -0.021483   0.168079  -0.001613  -0.022140   0.062154
   31  C  7  S    0.052008   0.081135   0.082630  -0.019664  -0.026251
   32  C  7  S   -0.151059  -0.246686  -0.244752   0.062687   0.080054
   33  C  7  X   -0.003418  -0.013283  -0.102899  -0.019722  -0.120818
   34  C  7  Y    0.068439   0.128272  -0.102933  -0.096094   0.051715
   35  C  7  Z   -0.001005   0.058608   0.081226   0.041130   0.101243
   36  C  8  S   -0.036958  -0.088602  -0.001484   0.039498   0.032414
   37  C  8  S    0.106537   0.263455   0.016033  -0.118980  -0.113909
   38  C  8  X   -0.035895  -0.003552  -0.137354  -0.057967  -0.097066
   39  C  8  Y    0.045458   0.112752   0.122151  -0.049171  -0.198198
   40  C  8  Z    0.042055   0.034633   0.149248   0.074289   0.038643
   41  C  9  S   -0.062140  -0.000508  -0.107368  -0.051608   0.014040
   42  C  9  S    0.189392   0.001172   0.343326   0.167566  -0.044896
   43  C  9  X    0.016757   0.160518   0.041645  -0.031187  -0.011177
   44  C  9  Y   -0.089254   0.064729  -0.083542  -0.078438  -0.054683
   45  C  9  Z   -0.015769  -0.130547  -0.089014   0.054301  -0.018660
   46  O 10  S    0.036102  -0.001264   0.058954   0.023324  -0.029164
   47  O 10  S   -0.149811   0.005726  -0.258964  -0.104720   0.139346
   48  O 10  X    0.008208   0.079484   0.028870  -0.014686  -0.023249
   49  O 10  Y   -0.035318   0.035152  -0.094538  -0.073634   0.076797
   50  O 10  Z   -0.006673  -0.064482  -0.063831   0.022892   0.026543
   51  H 11  S    0.143531  -0.053856   0.022810  -0.121299  -0.100453
   52  H 12  S    0.122398  -0.091282   0.032258  -0.183324   0.074227
   53  H 13  S    0.000497   0.085899  -0.083313   0.236778  -0.105180
   54  H 14  S   -0.119934  -0.049998   0.100627  -0.174451   0.063081
   55  H 15  S   -0.142610  -0.032273   0.045640  -0.121647  -0.094374
   56  H 16  S    0.054682  -0.139330  -0.095841   0.001014  -0.195697
   57  H 17  S   -0.009148   0.143515  -0.110927  -0.115460  -0.078715
   58  H 18  S   -0.075636  -0.027041   0.138638   0.039371  -0.260304
   59  H 19  S   -0.060628  -0.142223  -0.155830   0.013161  -0.080781
   60  H 20  S    0.034305   0.139455  -0.022083  -0.111474  -0.195625

                     21         22         23         24         25
                   -0.6060    -0.5917    -0.5868    -0.5546    -0.5419
                     A          A          A          A          A   
    1  C  1  S    0.015522  -0.007150  -0.001086   0.000319   0.004292
    2  C  1  S   -0.055526   0.020212  -0.001525  -0.002839  -0.022792
    3  C  1  X   -0.044012  -0.026844  -0.129386  -0.093454  -0.181631
    4  C  1  Y    0.275441  -0.112537  -0.050398  -0.207721  -0.111747
    5  C  1  Z    0.076785  -0.079198   0.104052   0.115252   0.134964
    6  C  2  S   -0.027093   0.005960  -0.004761   0.012581  -0.007377
    7  C  2  S    0.083024  -0.016317   0.014699  -0.041395   0.023909
    8  C  2  X    0.160258  -0.084925   0.093395   0.056394   0.105566
    9  C  2  Y    0.178376  -0.074616  -0.064413  -0.141903  -0.113295
   10  C  2  Z   -0.075549  -0.020889  -0.092076  -0.025001  -0.128063
   11  C  3  S    0.014167  -0.009102   0.004542  -0.004194   0.001654
   12  C  3  S   -0.051134   0.029062  -0.011904   0.023735  -0.001147
   13  C  3  X    0.203864  -0.078348   0.111061   0.104520   0.144265
   14  C  3  Y   -0.080111   0.097837   0.137787   0.160338   0.207222
   15  C  3  Z   -0.209038   0.001628  -0.075953   0.002118  -0.111752
   16  C  4  S   -0.001464   0.054913   0.012194  -0.020984  -0.006496
   17  C  4  S    0.007503  -0.185645  -0.036649   0.072028   0.021588
   18  C  4  X   -0.001853   0.113264  -0.009966   0.091198  -0.098357
   19  C  4  Y    0.015241   0.041109   0.241970  -0.130579  -0.064328
   20  C  4  Z    0.008299  -0.092724  -0.043683  -0.203722   0.122212
   21  C  5  S   -0.005235  -0.055770   0.000232  -0.009398   0.017436
   22  C  5  S    0.020172   0.190098   0.000707   0.026124  -0.056492
   23  C  5  X   -0.044488  -0.014199   0.103865  -0.012419  -0.080972
   24  C  5  Y   -0.061870  -0.170254  -0.191803   0.229323  -0.034120
   25  C  5  Z    0.073485   0.145356  -0.097903  -0.160469   0.186857
   26  C  6  S    0.003886   0.056286  -0.007233  -0.000610   0.005313
   27  C  6  S   -0.011918  -0.196116   0.019998   0.000037  -0.014002
   28  C  6  X    0.031871   0.013197  -0.093370  -0.062894   0.149736
   29  C  6  Y   -0.085426   0.020387  -0.120205   0.046088  -0.048588
   30  C  6  Z   -0.045617   0.041463   0.180834   0.028719  -0.128343
   31  C  7  S    0.000733  -0.046259   0.006349   0.007859  -0.019775
   32  C  7  S    0.008074   0.157012  -0.040359  -0.016219   0.065757
   33  C  7  X    0.116017   0.133002   0.040784   0.153062  -0.080453
   34  C  7  Y   -0.122722  -0.051286   0.263507  -0.149509  -0.029055
   35  C  7  Z   -0.164364  -0.126641   0.039206  -0.169995   0.110964
   36  C  8  S    0.014227   0.049926  -0.020054   0.018411  -0.005403
   37  C  8  S   -0.034824  -0.162991   0.053672  -0.052173   0.015887
   38  C  8  X    0.021835  -0.105017   0.122693   0.080070  -0.156203
   39  C  8  Y    0.165725  -0.092311  -0.168162   0.228254  -0.109364
   40  C  8  Z   -0.015469   0.091634  -0.150201  -0.048655   0.131950
   41  C  9  S   -0.033248  -0.086018   0.007431   0.011691   0.020777
   42  C  9  S    0.113897   0.299707  -0.022867  -0.038550  -0.070852
   43  C  9  X   -0.011229  -0.016357  -0.255378  -0.034938   0.136297
   44  C  9  Y    0.058897   0.030312  -0.088810  -0.007946  -0.014598
   45  C  9  Z   -0.003359   0.017421   0.165882  -0.056900  -0.198255
   46  O 10  S    0.034089   0.054692  -0.002601  -0.009696  -0.028588
   47  O 10  S   -0.167501  -0.269453   0.012585   0.049426   0.148041
   48  O 10  X    0.028943   0.021270  -0.235297   0.006619   0.093823
   49  O 10  Y   -0.121421  -0.246027  -0.075633   0.080055   0.229716
   50  O 10  Z   -0.068305  -0.076991   0.167459  -0.059543  -0.099600
   51  H 11  S   -0.248347   0.114460   0.010893   0.134127   0.045035
   52  H 12  S    0.070922  -0.011132  -0.128246  -0.209631  -0.208447
   53  H 13  S   -0.154315   0.069448  -0.028268   0.026799  -0.012860
   54  H 14  S    0.075605   0.058761   0.148252   0.144887   0.233749
   55  H 15  S   -0.255355   0.075390  -0.086567  -0.034758  -0.113001
   56  H 16  S    0.002035  -0.186758  -0.003469  -0.174484   0.127950
   57  H 17  S    0.085261   0.263973   0.043202  -0.210061   0.111716
   58  H 18  S    0.065083  -0.101099   0.049070  -0.052887   0.098179
   59  H 19  S    0.176778   0.230055  -0.072073   0.212578  -0.076606
   60  H 20  S    0.086880  -0.209198   0.025310   0.169483  -0.176568

                     26         27         28         29         30
                   -0.5156    -0.5060    -0.4866    -0.4785    -0.4506
                     A          A          A          A          A   
    1  C  1  S   -0.010051   0.008405   0.003793  -0.030589   0.007155
    2  C  1  S    0.036973  -0.017063  -0.017695   0.106790  -0.025490
    3  C  1  X   -0.076457   0.193010  -0.017511  -0.170083   0.062417
    4  C  1  Y    0.065199  -0.057771   0.290493   0.101972  -0.143642
    5  C  1  Z    0.177173   0.094420  -0.048075   0.206859  -0.117319
    6  C  2  S    0.009525   0.017081  -0.007640   0.007273  -0.002193
    7  C  2  S   -0.033620  -0.060534   0.032985  -0.032392   0.007484
    8  C  2  X    0.139988   0.026902  -0.094252   0.291867  -0.087228
    9  C  2  Y   -0.154548   0.003330  -0.283418   0.025005   0.143585
   10  C  2  Z   -0.046953   0.234797  -0.080176  -0.119186   0.083410
   11  C  3  S    0.009840   0.002882   0.031997  -0.005297  -0.006828
   12  C  3  S   -0.026618  -0.000504  -0.110508   0.023868   0.022048
   13  C  3  X   -0.007449   0.154540  -0.072080  -0.162031   0.089634
   14  C  3  Y    0.118719  -0.155890   0.246598  -0.061750  -0.135518
   15  C  3  Z    0.158598   0.124714   0.108352   0.259993  -0.116808
   16  C  4  S    0.011528  -0.008580   0.001372  -0.000466   0.003665
   17  C  4  S   -0.035798   0.042945  -0.004778   0.008657  -0.004383
   18  C  4  X   -0.242438  -0.150476   0.010211  -0.005506  -0.167221
   19  C  4  Y    0.004678  -0.004789   0.133325   0.056040   0.243539
   20  C  4  Z    0.113338  -0.209255  -0.032638  -0.047684   0.145065
   21  C  5  S    0.004805   0.021111  -0.005593   0.007888  -0.000225
   22  C  5  S   -0.018972  -0.074323   0.022299  -0.028142   0.000939
   23  C  5  X   -0.013550  -0.230948   0.043224   0.009018   0.196575
   24  C  5  Y   -0.075504  -0.105966  -0.108260  -0.055699  -0.223468
   25  C  5  Z   -0.141447  -0.031206   0.020666  -0.072785  -0.201319
   26  C  6  S   -0.022073   0.006618  -0.002823   0.011555  -0.004974
   27  C  6  S    0.082693  -0.013523   0.006786  -0.043245   0.007833
   28  C  6  X   -0.135701  -0.176511   0.016664  -0.088382  -0.123151
   29  C  6  Y    0.242023  -0.120840   0.073322  -0.131938   0.161559
   30  C  6  Z    0.028118  -0.157027   0.008570   0.078438   0.259799
   31  C  7  S   -0.019229  -0.000877   0.011858   0.002254  -0.003215
   32  C  7  S    0.072365  -0.001704  -0.030007  -0.011435   0.021387
   33  C  7  X   -0.118820  -0.089898  -0.044658   0.176468   0.109891
   34  C  7  Y   -0.037884   0.110873  -0.132586   0.051586  -0.090205
   35  C  7  Z    0.031321  -0.155709  -0.090321  -0.089511  -0.078681
   36  C  8  S    0.010107  -0.003956  -0.000975   0.003724   0.011155
   37  C  8  S   -0.036163   0.009173   0.014306  -0.015825  -0.036075
   38  C  8  X   -0.008695  -0.184659  -0.077520  -0.046362  -0.072059
   39  C  8  Y    0.025892  -0.075802   0.161744  -0.060492   0.085245
   40  C  8  Z   -0.066366  -0.097167  -0.023733   0.136767   0.107008
   41  C  9  S   -0.006463  -0.008415   0.007585  -0.014745   0.000397
   42  C  9  S    0.014440   0.034052  -0.021444   0.057969   0.001197
   43  C  9  X   -0.041934  -0.183460  -0.099812   0.152872   0.080217
   44  C  9  Y    0.316408  -0.022924  -0.185037  -0.154958  -0.096273
   45  C  9  Z   -0.032320  -0.233678  -0.144546  -0.010849  -0.133328
   46  O 10  S    0.055818  -0.010008  -0.034641  -0.021418  -0.018414
   47  O 10  S   -0.297694   0.053861   0.190411   0.119232   0.105885
   48  O 10  X    0.065685  -0.163844  -0.168286   0.122307   0.082528
   49  O 10  Y   -0.314219   0.096510   0.280200   0.182518   0.258049
   50  O 10  Z   -0.234069  -0.149510   0.034626   0.074841  -0.064535
   51  H 11  S   -0.102722   0.021078  -0.270395  -0.110482   0.166495
   52  H 12  S   -0.067774  -0.011738   0.217638  -0.091816  -0.010122
   53  H 13  S   -0.008032   0.039231   0.239699  -0.251674  -0.015755
   54  H 14  S   -0.006014  -0.094234   0.076023  -0.244320   0.002588
   55  H 15  S    0.109006  -0.081572   0.114172   0.277017  -0.157233
   56  H 16  S    0.181673  -0.079689  -0.000212  -0.014165   0.256855
   57  H 17  S   -0.031002   0.085722   0.092949  -0.021929  -0.011985
   58  H 18  S   -0.223848   0.056500  -0.065189   0.048877  -0.233067
   59  H 19  S   -0.052407   0.023372   0.049584   0.163897   0.174713
   60  H 20  S    0.016211  -0.105858   0.092514  -0.129379  -0.037574

                     31         32         33         34         35
                   -0.4448    -0.4166    -0.3568    -0.3143    -0.2712
                     A          A          A          A          A   
    1  C  1  S    0.009211   0.002095  -0.005647  -0.000052   0.027303
    2  C  1  S   -0.037912   0.006785   0.006869   0.000761  -0.131684
    3  C  1  X    0.035178   0.225813  -0.024944  -0.009012  -0.276381
    4  C  1  Y    0.141071   0.031888   0.066548  -0.016597  -0.020384
    5  C  1  Z   -0.135169   0.136452  -0.148692   0.026416  -0.281953
    6  C  2  S   -0.002704   0.020826   0.012979  -0.003309  -0.006645
    7  C  2  S    0.015271  -0.073849  -0.049587   0.010588   0.028333
    8  C  2  X   -0.134851  -0.009202   0.068774   0.015488  -0.028065
    9  C  2  Y   -0.108258  -0.154371  -0.095262   0.012977  -0.011400
   10  C  2  Z   -0.020343   0.190493   0.110299  -0.000186  -0.136603
   11  C  3  S    0.014588  -0.005347  -0.011604  -0.002309  -0.012013
   12  C  3  S   -0.052136   0.021631   0.066244   0.010740   0.071760
   13  C  3  X    0.023138   0.146221   0.264637  -0.007914   0.188005
   14  C  3  Y    0.119487   0.135441  -0.038244  -0.021036  -0.053617
   15  C  3  Z   -0.035615  -0.010586   0.232438   0.016930   0.171656
   16  C  4  S   -0.023867   0.008948  -0.015856  -0.031822  -0.012603
   17  C  4  S    0.087568  -0.029129   0.085465   0.144801   0.069302
   18  C  4  X   -0.020468  -0.040038  -0.208640   0.177665  -0.247999
   19  C  4  Y   -0.118491   0.031471   0.015454   0.254633  -0.063247
   20  C  4  Z    0.046154  -0.011453  -0.257296  -0.119411  -0.198658
   21  C  5  S   -0.004608   0.017119   0.011810   0.007295  -0.001801
   22  C  5  S    0.007955  -0.063381  -0.041845  -0.023273   0.003352
   23  C  5  X    0.068879  -0.138914  -0.046366   0.084693  -0.006259
   24  C  5  Y    0.152891  -0.092770  -0.075243  -0.070647  -0.048486
   25  C  5  Z   -0.170654  -0.060756   0.003952   0.103825  -0.076506
   26  C  6  S    0.002388  -0.006457   0.018112  -0.001437   0.005914
   27  C  6  S   -0.020104   0.037298  -0.078657   0.009208  -0.050615
   28  C  6  X   -0.079753  -0.223656   0.226024   0.054408   0.222538
   29  C  6  Y   -0.267571   0.005525   0.028822   0.044091   0.005364
   30  C  6  Z    0.205860  -0.131116   0.084259  -0.068690   0.153174
   31  C  7  S    0.009996   0.003077  -0.009188  -0.012260  -0.006447
   32  C  7  S   -0.052097  -0.008960   0.036258   0.044396   0.025672
   33  C  7  X    0.162405   0.001365   0.260499  -0.160480  -0.250385
   34  C  7  Y    0.281328   0.014463  -0.086783   0.051152  -0.006580
   35  C  7  Z   -0.100794  -0.040710   0.361375  -0.030591  -0.197229
   36  C  8  S    0.005650  -0.000668   0.006439   0.037099  -0.005664
   37  C  8  S   -0.038466   0.002649  -0.027218  -0.165555   0.027867
   38  C  8  X   -0.043058   0.061217   0.317082   0.120755  -0.292089
   39  C  8  Y   -0.206681  -0.018333  -0.052389  -0.036343   0.070200
   40  C  8  Z   -0.011396   0.094319   0.242968  -0.304983  -0.239946
   41  C  9  S    0.002636  -0.002313   0.006955   0.001060   0.009000
   42  C  9  S   -0.011144   0.012105  -0.025225  -0.002721  -0.037568
   43  C  9  X    0.069797   0.311552  -0.043997  -0.103943   0.121923
   44  C  9  Y    0.142087  -0.088624   0.028931  -0.066298   0.025794
   45  C  9  Z   -0.086646   0.295195  -0.003948   0.151327   0.078802
   46  O 10  S    0.011108  -0.002739   0.000767  -0.000306  -0.000258
   47  O 10  S   -0.064592   0.016490  -0.006714   0.001536  -0.001256
   48  O 10  X    0.213287   0.331653   0.042858   0.607292   0.188409
   49  O 10  Y   -0.018472  -0.035714   0.020335   0.236814  -0.114641
   50  O 10  Z   -0.266472   0.366610  -0.118508  -0.433955   0.342685
   51  H 11  S   -0.110757  -0.078777  -0.008662   0.010946   0.072671
   52  H 12  S    0.182766   0.044859   0.124396  -0.027630   0.031402
   53  H 13  S    0.164992   0.173187   0.060625  -0.018768  -0.025311
   54  H 14  S    0.103156   0.160373  -0.040410  -0.041102  -0.069991
   55  H 15  S   -0.041662  -0.086386  -0.069293   0.016595  -0.049209
   56  H 16  S    0.070052   0.000732  -0.103227  -0.110562  -0.042295
   57  H 17  S   -0.248212   0.050247   0.069496   0.113907  -0.009399
   58  H 18  S    0.190254  -0.067991   0.011890  -0.009174   0.080032
   59  H 19  S    0.094970   0.022738  -0.058412  -0.116498  -0.009535
   60  H 20  S   -0.203980  -0.017874   0.035682   0.120123  -0.000825

                     36         37         38         39         40
                   -0.2234     0.2067     0.2159     0.3540     0.3894
                     A          A          A          A          A   
    1  C  1  S   -0.025326  -0.000467  -0.041471  -0.031139  -0.030401
    2  C  1  S    0.090296   0.028824   0.208751   0.134104   0.159998
    3  C  1  X    0.133005   0.128863   0.305344   0.251438   0.300009
    4  C  1  Y    0.008721  -0.017081   0.009078  -0.033192   0.002196
    5  C  1  Z    0.151858   0.067307   0.279907   0.354802   0.198448
    6  C  2  S    0.021706  -0.018750  -0.007572   0.001264  -0.007706
    7  C  2  S   -0.105099   0.105416   0.043091  -0.009085   0.057397
    8  C  2  X    0.316542  -0.319105  -0.158567   0.034835  -0.199782
    9  C  2  Y   -0.132415   0.083679   0.072583  -0.005215   0.062769
   10  C  2  Z    0.420955  -0.410463  -0.141370   0.047595  -0.256559
   11  C  3  S   -0.030055  -0.025797   0.029768   0.040276  -0.021913
   12  C  3  S    0.113611   0.149928  -0.130271  -0.184661   0.121926
   13  C  3  X    0.205764   0.262280  -0.159135  -0.365512   0.183270
   14  C  3  Y   -0.037700   0.013053   0.037652   0.096627   0.066849
   15  C  3  Z    0.172024   0.245016  -0.114311  -0.365074   0.153555
   16  C  4  S    0.031974  -0.009144  -0.022285  -0.051461  -0.008583
   17  C  4  S   -0.123850   0.071870   0.097636   0.249590   0.063753
   18  C  4  X    0.143452  -0.174425  -0.200270  -0.411771   0.019925
   19  C  4  Y   -0.008157   0.037226  -0.000485  -0.057107  -0.036608
   20  C  4  Z    0.169914  -0.134826  -0.177589  -0.358680   0.040106
   21  C  5  S   -0.022667  -0.019160  -0.006824  -0.002374   0.020653
   22  C  5  S    0.107805   0.108373   0.037466   0.013713  -0.115166
   23  C  5  X    0.474069   0.503677   0.152751   0.050703  -0.110245
   24  C  5  Y    0.118969   0.082304   0.067629  -0.038464  -0.067619
   25  C  5  Z    0.257370   0.303622   0.146409  -0.041335  -0.057633
   26  C  6  S    0.030045  -0.019813   0.009487   0.053895   0.006560
   27  C  6  S   -0.119069   0.111382  -0.017252  -0.270018  -0.014098
   28  C  6  X    0.219884  -0.234725   0.072822   0.440169   0.154410
   29  C  6  Y   -0.006865  -0.016239   0.002271   0.028442  -0.010047
   30  C  6  Z    0.166096  -0.238761   0.021420   0.285819   0.136070
   31  C  7  S    0.008318   0.015185   0.009057  -0.001348  -0.001002
   32  C  7  S   -0.034231  -0.073501  -0.042290   0.008455   0.007879
   33  C  7  X   -0.034603  -0.130293   0.354584  -0.304654   0.280336
   34  C  7  Y    0.039949   0.101909  -0.015096   0.045902  -0.048426
   35  C  7  Z   -0.083158  -0.208648   0.298776  -0.289340   0.260357
   36  C  8  S   -0.004765  -0.007497  -0.002923   0.001410  -0.002306
   37  C  8  S    0.021405   0.033506   0.013107  -0.008376   0.012989
   38  C  8  X   -0.147246   0.201157  -0.208440   0.166852  -0.399297
   39  C  8  Y    0.027426  -0.040882   0.039652  -0.031423   0.083203
   40  C  8  Z   -0.097548   0.233672  -0.210937   0.181848  -0.414322
   41  C  9  S    0.009036   0.018638   0.003403   0.001757  -0.000268
   42  C  9  S   -0.038309  -0.089410  -0.018372  -0.011669   0.003382
   43  C  9  X    0.041205   0.117634  -0.289812   0.153275   0.424404
   44  C  9  Y    0.046719   0.069933   0.076679  -0.037780  -0.080896
   45  C  9  Z   -0.029647  -0.002123  -0.329033   0.155919   0.427705
   46  O 10  S   -0.000120  -0.002086  -0.000906  -0.001451   0.000128
   47  O 10  S   -0.001298   0.009066   0.004987   0.009503  -0.001439
   48  O 10  X   -0.065971  -0.104330   0.356160  -0.120100  -0.306544
   49  O 10  Y   -0.042711  -0.028079  -0.086221   0.008539   0.063388
   50  O 10  Z    0.053021  -0.033860   0.376256  -0.124991  -0.304630
   51  H 11  S    0.002691  -0.044966  -0.056617   0.011865  -0.037138
   52  H 12  S    0.072353  -0.130744  -0.061002   0.066911  -0.071168
   53  H 13  S    0.047137  -0.016164  -0.004498   0.002213   0.010140
   54  H 14  S    0.060965  -0.129076  -0.043960  -0.032530  -0.079862
   55  H 15  S   -0.003104  -0.076829   0.005828  -0.001332  -0.040102
   56  H 16  S    0.005901  -0.067676   0.002780  -0.019005  -0.091459
   57  H 17  S   -0.061087  -0.020077  -0.006471   0.002966   0.030495
   58  H 18  S    0.005108  -0.054462  -0.068524   0.057255  -0.086162
   59  H 19  S    0.023130   0.030704   0.008689  -0.006581  -0.017232
   60  H 20  S   -0.024819  -0.041533  -0.022115   0.013725  -0.016488

                     41         42         43         44         45
                    0.5165     0.5729     0.5898     0.6220     0.6227
                     A          A          A          A          A   
    1  C  1  S   -0.010618   0.024669   0.003103  -0.007567   0.036469
    2  C  1  S    0.037502  -0.159155  -0.018438   0.051055  -0.230160
    3  C  1  X    0.363933   0.087282   0.071987  -0.019698   0.089993
    4  C  1  Y   -0.012908   0.240254   0.189325   0.061895   0.381447
    5  C  1  Z    0.291443   0.004965  -0.095125  -0.028325  -0.065285
    6  C  2  S   -0.031065   0.020531   0.013930  -0.000735   0.042411
    7  C  2  S    0.194218  -0.127463  -0.087407   0.001632  -0.268131
    8  C  2  X   -0.198896   0.156981   0.128613  -0.047794   0.327604
    9  C  2  Y    0.105175   0.178423   0.140235   0.013469   0.340097
   10  C  2  Z   -0.291365  -0.092251  -0.060455   0.013797  -0.144755
   11  C  3  S   -0.011461   0.013113   0.025917   0.027880   0.030962
   12  C  3  S    0.041878  -0.084610  -0.166082  -0.175265  -0.194684
   13  C  3  X    0.342226   0.194146   0.156215  -0.012909   0.263598
   14  C  3  Y    0.016067   0.117347   0.013015  -0.122592   0.147899
   15  C  3  Z    0.333088  -0.160213  -0.078100   0.092928  -0.266131
   16  C  4  S    0.043394  -0.000291   0.047385   0.111520  -0.010286
   17  C  4  S   -0.229969  -0.020667  -0.290862  -0.655838   0.075780
   18  C  4  X    0.374524   0.234205   0.063827  -0.350091  -0.191505
   19  C  4  Y   -0.086749   0.211309  -0.092442  -0.447480  -0.096581
   20  C  4  Z    0.341187  -0.268506  -0.147817   0.034295   0.163675
   21  C  5  S    0.010264   0.043935   0.019024   0.002414  -0.050080
   22  C  5  S   -0.078887  -0.274518  -0.121443  -0.019890   0.314938
   23  C  5  X   -0.346523   0.084452   0.024736   0.029108  -0.046822
   24  C  5  Y   -0.072599   0.263858   0.116804   0.074064  -0.246959
   25  C  5  Z   -0.183003  -0.195649  -0.157861   0.184783   0.221160
   26  C  6  S    0.040377   0.055072  -0.065053  -0.015302   0.006479
   27  C  6  S   -0.213913  -0.347938   0.377571   0.089001  -0.023836
   28  C  6  X    0.321105  -0.130874   0.310769  -0.086785  -0.103040
   29  C  6  Y    0.008533   0.321654   0.293271   0.200717  -0.320198
   30  C  6  Z    0.398413   0.005263  -0.201855   0.034726   0.049732
   31  C  7  S   -0.015739   0.050686   0.021229   0.051251  -0.048328
   32  C  7  S    0.089694  -0.309298  -0.113765  -0.342871   0.288393
   33  C  7  X   -0.267847  -0.151111   0.374465  -0.110457  -0.059243
   34  C  7  Y   -0.013554   0.109093   0.245358   0.145585  -0.196271
   35  C  7  Z   -0.174358   0.233868  -0.398698   0.181156   0.022318
   36  C  8  S    0.014586  -0.010839   0.023346   0.111049   0.000272
   37  C  8  S   -0.084978   0.041424  -0.120262  -0.683294   0.002879
   38  C  8  X    0.194495  -0.217490   0.436194  -0.029781  -0.076098
   39  C  8  Y   -0.056059  -0.015601   0.059282  -0.394495  -0.027386
   40  C  8  Z    0.218040   0.166016  -0.385585  -0.101437   0.063194
   41  C  9  S   -0.017887   0.090812  -0.089000  -0.128736  -0.018640
   42  C  9  S    0.102233  -0.535366   0.525826   0.757151   0.107643
   43  C  9  X   -0.282818   0.041466   0.264133  -0.055494  -0.140372
   44  C  9  Y   -0.011832   0.130264  -0.058599  -0.458904  -0.077104
   45  C  9  Z   -0.199042   0.005640  -0.270357   0.070563   0.110152
   46  O 10  S    0.002662  -0.018911   0.013330   0.007188   0.003876
   47  O 10  S   -0.015603   0.118468  -0.079601  -0.029320  -0.025284
   48  O 10  X    0.144011   0.000545  -0.091131   0.022262   0.036852
   49  O 10  Y    0.004795  -0.167953   0.077062   0.074500   0.053388
   50  O 10  Z    0.120659  -0.050197   0.102356  -0.054508  -0.023488
   51  H 11  S    0.069046   0.309054   0.174698   0.021164   0.463833
   52  H 12  S   -0.001966  -0.125788  -0.220039  -0.078024  -0.241216
   53  H 13  S   -0.041944   0.347791   0.258765  -0.030114   0.652137
   54  H 14  S   -0.011254  -0.215439  -0.043158   0.224801  -0.278506
   55  H 15  S    0.066287   0.273351   0.251933   0.035118   0.439603
   56  H 16  S    0.032555   0.311181   0.348957   0.244157  -0.261876
   57  H 17  S   -0.021335   0.518006   0.274541  -0.057414  -0.517345
   58  H 18  S    0.053283   0.538512  -0.087285   0.171717  -0.235265
   59  H 19  S   -0.003851   0.483266  -0.424418   0.398808  -0.138593
   60  H 20  S    0.085815   0.166063  -0.390549   0.656394   0.100395

                     46         47         48         49         50
                    0.6647     0.6976     0.7143     0.7259     0.7411
                     A          A          A          A          A   
    1  C  1  S    0.034342  -0.116274  -0.026719   0.126761  -0.066423
    2  C  1  S   -0.215414   0.739408   0.161628  -0.811137   0.419178
    3  C  1  X    0.001673   0.060634  -0.136904  -0.058964   0.183331
    4  C  1  Y   -0.260048  -0.229671   0.276786  -0.462335  -0.125585
    5  C  1  Z    0.094563  -0.353405   0.096699   0.268441  -0.264056
    6  C  2  S   -0.010944   0.070761   0.062442  -0.014100  -0.006886
    7  C  2  S    0.064248  -0.431614  -0.387677   0.087433   0.069364
    8  C  2  X    0.016833   0.103110  -0.027720   0.174374   0.044026
    9  C  2  Y   -0.119748  -0.048565   0.073919  -0.248993  -0.055278
   10  C  2  Z   -0.082582  -0.043777   0.043597  -0.198700   0.022269
   11  C  3  S    0.001835  -0.088453  -0.122569  -0.090368  -0.066982
   12  C  3  S   -0.012324   0.553886   0.785953   0.581913   0.421670
   13  C  3  X    0.157039   0.066226  -0.343005   0.241693   0.026539
   14  C  3  Y   -0.059799   0.085655   0.312080   0.231363   0.272670
   15  C  3  Z   -0.159429  -0.259536   0.110622  -0.403824  -0.066427
   16  C  4  S    0.013326  -0.024193  -0.045370   0.025254   0.130877
   17  C  4  S   -0.091162   0.154111   0.300387  -0.141887  -0.817995
   18  C  4  X    0.314590   0.195539  -0.003973  -0.124580  -0.106016
   19  C  4  Y   -0.168483  -0.175499   0.024989  -0.009390   0.157771
   20  C  4  Z   -0.418954  -0.033237   0.208384   0.170513  -0.107579
   21  C  5  S    0.000250   0.056016   0.046790   0.001585  -0.146721
   22  C  5  S   -0.008873  -0.353554  -0.306044  -0.006720   0.935290
   23  C  5  X    0.236480  -0.012162   0.014288  -0.090696  -0.107568
   24  C  5  Y   -0.155398  -0.112429   0.030447   0.077713   0.075974
   25  C  5  Z   -0.171944  -0.028930   0.036366   0.125587  -0.087495
   26  C  6  S    0.080160  -0.079922   0.031168  -0.051504   0.115964
   27  C  6  S   -0.479256   0.509603  -0.192380   0.304643  -0.728562
   28  C  6  X   -0.180067   0.270008  -0.249062   0.004821  -0.016726
   29  C  6  Y   -0.449538  -0.239861   0.137650   0.192716   0.209187
   30  C  6  Z   -0.049368   0.021953   0.235353  -0.029877  -0.188557
   31  C  7  S   -0.120858   0.061842  -0.085981   0.052971  -0.026065
   32  C  7  S    0.744779  -0.409114   0.547919  -0.325574   0.160916
   33  C  7  X    0.017684  -0.117238   0.011579   0.059023   0.053778
   34  C  7  Y   -0.294268   0.072497   0.081506   0.149393  -0.173553
   35  C  7  Z    0.025919  -0.021700  -0.004560   0.059442  -0.063477
   36  C  8  S    0.091382  -0.003972   0.106839  -0.003605  -0.043157
   37  C  8  S   -0.551651   0.011676  -0.682819   0.019108   0.287592
   38  C  8  X   -0.038102  -0.041477   0.076639   0.067540  -0.021962
   39  C  8  Y   -0.150725  -0.237011   0.028812   0.006051   0.107085
   40  C  8  Z   -0.042111   0.070687  -0.065661  -0.088511   0.003994
   41  C  9  S    0.005063   0.028058  -0.048577  -0.040349  -0.023995
   42  C  9  S   -0.042755  -0.182639   0.293066   0.242755   0.143305
   43  C  9  X    0.253125  -0.025068   0.227223  -0.070469  -0.229013
   44  C  9  Y   -0.075646  -0.100483   0.091548  -0.057895  -0.080775
   45  C  9  Z   -0.237317  -0.116589  -0.305047  -0.010950   0.231063
   46  O 10  S   -0.017010  -0.020919   0.011313   0.007640   0.010139
   47  O 10  S    0.120881   0.143789  -0.074645  -0.050687  -0.069296
   48  O 10  X   -0.055907   0.037396  -0.080136   0.010944   0.053593
   49  O 10  Y   -0.176363  -0.172552   0.050477   0.070196   0.113111
   50  O 10  Z    0.002323  -0.029640   0.124512   0.019048  -0.046297
   51  H 11  S   -0.112414  -0.651475   0.182815   0.042717  -0.388115
   52  H 12  S    0.322732  -0.426000  -0.128432   0.860216  -0.323615
   53  H 13  S   -0.083348   0.285441   0.225528  -0.044241  -0.021878
   54  H 14  S   -0.088652  -0.457912  -0.429611  -0.737245  -0.416131
   55  H 15  S    0.220463  -0.092062  -0.733748   0.089372  -0.202323
   56  H 16  S    0.581451   0.083301  -0.285501  -0.112565   0.403512
   57  H 17  S    0.041736   0.117232   0.148238  -0.032332  -0.392581
   58  H 18  S   -0.089062  -0.534356   0.327883  -0.001788   0.513299
   59  H 19  S   -0.468352   0.288940  -0.261319   0.173251  -0.188655
   60  H 20  S    0.420340   0.199398   0.256497  -0.082432  -0.185399

                     51         52         53         54         55
                    0.7566     0.7867     0.8227     0.8762     0.8828
                     A          A          A          A          A   
    1  C  1  S    0.067797   0.037202  -0.025599   0.010216   0.023119
    2  C  1  S   -0.438011  -0.232743   0.159037  -0.071252  -0.168409
    3  C  1  X   -0.087125   0.382807  -0.265701  -0.034072   0.205331
    4  C  1  Y    0.440021   0.094477  -0.072624  -0.145801   0.029056
    5  C  1  Z    0.220550  -0.394119   0.312099   0.055957  -0.082156
    6  C  2  S   -0.024330  -0.164972   0.110691   0.012977   0.001671
    7  C  2  S    0.160222   1.092121  -0.740526  -0.088133  -0.011579
    8  C  2  X   -0.043312   0.108588  -0.098298   0.104968   0.163340
    9  C  2  Y    0.050307  -0.103257   0.071078   0.151610  -0.281391
   10  C  2  Z    0.087768   0.248679  -0.170715  -0.094748  -0.213435
   11  C  3  S   -0.056034   0.053352  -0.020933   0.006667  -0.023388
   12  C  3  S    0.360545  -0.335164   0.131475  -0.052686   0.168486
   13  C  3  X   -0.326927   0.073302  -0.057708  -0.033255  -0.064764
   14  C  3  Y    0.336378   0.511441  -0.423754  -0.058216  -0.227226
   15  C  3  Z    0.310021  -0.021001   0.040140   0.089783  -0.060426
   16  C  4  S    0.054539  -0.053863  -0.012673   0.033178  -0.082783
   17  C  4  S   -0.344908   0.339240   0.082751  -0.235769   0.574560
   18  C  4  X    0.179069   0.045004   0.195701  -0.287163  -0.049342
   19  C  4  Y   -0.130702   0.329501   0.454833   0.437536  -0.396949
[...]
 18   H            X -0.06692602  0.02001252 -0.02192028 -0.05794849 -0.01273100
                   Y -0.09499213  0.00704136  0.02743679 -0.07147817 -0.01531394
                   Z -0.00030268  0.00501944 -0.01134183  0.03197479  0.00253336
 19   H            X -0.02151326  0.00114706  0.00506029 -0.11662475 -0.02511239
                   Y -0.06643639  0.00357506  0.02240933 -0.10707073 -0.01935441
                   Z  0.01470691 -0.00065289  0.00300166  0.08828845  0.01943668
 20   H            X  0.00743655 -0.00022748 -0.00493607 -0.09261553 -0.05951446
                   Y  0.01254625 -0.00041194 -0.00488118 -0.03290488  0.03700684
                   Z -0.00938081 -0.00127841  0.01520040  0.09879642  0.06778407

 TRANS. SAYVETZ    X -0.00000096 -0.00000044 -0.00000259 -0.00000141 -0.00000115
                   Y -0.00000160  0.00000131 -0.00000029 -0.00000050  0.00000039
                   Z  0.00000313  0.00000139  0.00000196  0.00000061  0.00000312
               TOTAL  0.00000364  0.00000196  0.00000326  0.00000162  0.00000334

   ROT. SAYVETZ    X  0.00003413 -0.00017078 -0.00005074 -0.00003176  0.00001562
                   Y  0.00009234  0.00014073 -0.00010131  0.00003028 -0.00001239
                   Z -0.00006196 -0.00004119  0.00004391 -0.00001501  0.00001531
               TOTAL  0.00011632  0.00022510  0.00012152  0.00004637  0.00002514

                           51          52          53          54          55
       FREQUENCY:      3630.08     3634.32     3686.09     3693.06     3695.66  
        SYMMETRY:         A           A           A           A           A   
    REDUCED MASS:      1.06267     1.06462     1.09101     1.09411     1.09590
    IR INTENSITY:      0.09885     0.07245     0.19341     0.04549     0.14158

  1   C            X  0.02468725  0.01313450 -0.00363161  0.00062266  0.00701669
                   Y -0.01741518 -0.00910041  0.00037388  0.00096366  0.00142392
                   Z -0.05176139 -0.02884982  0.00531088 -0.00164935 -0.00837446
  2   C            X  0.00264568 -0.00426663  0.01048421 -0.00588421 -0.04772380
                   Y  0.00789483  0.00275344  0.01245585 -0.00741914 -0.05710785
                   Z -0.00392220  0.00521767 -0.00677271  0.00369558  0.03092853
  3   C            X -0.01133164  0.02223193  0.00047222 -0.00029721  0.00113688
                   Y  0.02914921 -0.05661745 -0.00650845  0.00229415  0.01086128
                   Z  0.00207082 -0.00257760  0.00065323  0.00102211 -0.00115666
  4   C            X  0.00143330 -0.00123942  0.02796180  0.02606830  0.00539999
                   Y -0.00024815  0.00092260 -0.01091928 -0.01248559 -0.00270651
                   Z -0.00287917  0.00060633 -0.04906243 -0.04531050 -0.00831900
  5   C            X -0.00118978  0.00061526 -0.01375323 -0.00008008 -0.00022421
                   Y -0.00286424  0.00060523 -0.02987243  0.00910337 -0.00127616
                   Z  0.00205223 -0.00094339  0.02371815 -0.00153992  0.00055452
  6   C            X -0.00116004  0.00049257 -0.01495815  0.02509392 -0.00803165
                   Y  0.00300181 -0.00074892  0.03571310 -0.05503754  0.01769246
                   Z  0.00055327  0.00095360  0.00412232 -0.00871602  0.00370858
  7   C            X  0.00069007  0.00005043  0.00464067 -0.01039102  0.00497311
                   Y -0.00012651  0.00009155 -0.00312512  0.00617658 -0.00265176
                   Z -0.00003526  0.00007595 -0.00533314  0.01165437 -0.00554886
  8   C            X -0.00022388  0.00005505 -0.00216433  0.00498870 -0.00216843
                   Y -0.00040090  0.00018941 -0.00210750  0.00537365 -0.00226566
                   Z  0.00024110  0.00001915  0.00150142 -0.00362225  0.00161423
  9   C            X  0.00013927 -0.00018380 -0.00084009 -0.00123539 -0.00009271
                   Y -0.00013277 -0.00006697 -0.00076913 -0.00105018 -0.00013654
                   Z  0.00030106 -0.00023502  0.00057356  0.00094067  0.00000462
 10   O            X -0.00000255 -0.00001375  0.00003848  0.00010906  0.00001644
                   Y -0.00000593  0.00004079  0.00005129  0.00019898  0.00003671
                   Z -0.00001621 -0.00000817 -0.00004464 -0.00007644  0.00001467
 11   H            X -0.00770882 -0.00434280  0.00237728 -0.00070142 -0.00237230
                   Y  0.56799179  0.30541109 -0.03895370  0.00518425  0.02964119
                   Z  0.19484763  0.10427089 -0.01243974  0.00174902  0.00966680
 12   H            X -0.24162899 -0.13126201  0.02631802 -0.00879105 -0.03562097
                   Y -0.38489984 -0.20953530  0.03957822 -0.01443208 -0.06084648
                   Z  0.38130568  0.20902916 -0.03743053  0.01391438  0.05797910
 13   H            X -0.08202890  0.02309205 -0.11137455  0.06491673  0.51739238
                   Y -0.10108007  0.03250206 -0.13920194  0.08083029  0.64366411
                   Z  0.05834159 -0.01577512  0.07947692 -0.04593482 -0.36564965
 14   H            X -0.11291051  0.21506578  0.02497203 -0.00538277 -0.03316636
                   Y -0.24700536  0.47587031  0.05050034 -0.01117170 -0.07040266
                   Z  0.16809177 -0.32350718 -0.03306141  0.00758879  0.05071960
 15   H            X  0.24525873 -0.46419924 -0.02816806  0.00952549  0.01940946
                   Y -0.07174761  0.13550666  0.00894278 -0.00300921 -0.00700748
                   Z -0.17632188  0.33449792  0.02261147 -0.00791921 -0.01623671
 16   H            X -0.01683927  0.00501459 -0.30853177 -0.28497291 -0.05389748
                   Y  0.00758821 -0.00237437  0.13268553  0.12361716  0.02323905
                   Z  0.03463022 -0.01056333  0.56124108  0.51606079  0.09588781
 17   H            X  0.01445708 -0.00460085  0.15087727 -0.02714318  0.00694822
                   Y  0.03284968 -0.01027756  0.35593222 -0.06640914  0.01661962
                   Z -0.02500775  0.00794461 -0.27496972  0.04959566 -0.01274611
 18   H            X  0.01685224 -0.00602435  0.18299183 -0.28343455  0.08948707
                   Y -0.03414519  0.01207472 -0.40294215  0.62369460 -0.19818126
                   Z -0.00328677  0.00089701 -0.05282123  0.08377794 -0.02766323
 19   H            X -0.00520746  0.00060000 -0.05733704  0.12513182 -0.05826609
                   Y  0.00146896 -0.00047442  0.02242850 -0.04894031  0.02281203
                   Z  0.00587523 -0.00073813  0.06309564 -0.13676459  0.06380012
 20   H            X  0.00297620 -0.00092616  0.01949036 -0.05388444  0.02269545
                   Y  0.00453289 -0.00146628  0.02688046 -0.07240125  0.03051186
                   Z -0.00263893  0.00047430 -0.01388590  0.03739286 -0.01567789

 TRANS. SAYVETZ    X  0.00000066 -0.00000064 -0.00000125 -0.00000057  0.00000079
                   Y -0.00000018 -0.00000001 -0.00000134  0.00000065  0.00000053
                   Z -0.00000159  0.00000050 -0.00000031 -0.00000072  0.00000092
               TOTAL  0.00000173  0.00000081  0.00000186  0.00000113  0.00000132

   ROT. SAYVETZ    X -0.00002424 -0.00000421 -0.00000466  0.00002178 -0.00000432
                   Y  0.00001028 -0.00003453  0.00001654  0.00002547  0.00000628
                   Z  0.00001969 -0.00000648  0.00000677 -0.00002361  0.00000915
               TOTAL  0.00003288  0.00003538  0.00001847  0.00004100  0.00001191

                           56          57          58          59          60
       FREQUENCY:      3704.05     3712.80     3736.28     3777.40     3780.01  
        SYMMETRY:         A           A           A           A           A   
    REDUCED MASS:      1.09133     1.10022     1.10603     1.11642     1.11674
    IR INTENSITY:      0.55033     0.10235     0.06836     0.00320     0.01482

  1   C            X -0.00040185  0.00021312 -0.00008460 -0.02011985 -0.00703128
                   Y  0.00075616  0.00184438 -0.00039622 -0.08441425 -0.03077731
                   Z  0.00026921 -0.00075363  0.00012741  0.01676249  0.00563823
  2   C            X  0.00336991 -0.00534570  0.00003927 -0.00190721 -0.00310830
                   Y  0.00377070 -0.00610431  0.00005545 -0.00086678 -0.00410950
                   Z -0.00208487  0.00311624 -0.00000873  0.00135214  0.00152066
  3   C            X -0.00008434  0.00087377 -0.00012598  0.02193133 -0.06086789
                   Y -0.00043541  0.00073744 -0.00023301  0.00994928 -0.02627668
                   Z  0.00039199 -0.00146954  0.00020861 -0.02120844  0.05846086
  4   C            X  0.00456321 -0.01452476  0.00135395  0.00005080 -0.00009848
                   Y -0.00278360  0.00976629 -0.00065012 -0.00010988  0.00036296
                   Z -0.00766989  0.02275456 -0.00199428  0.00003799  0.00081525
  5   C            X  0.00393738 -0.02094753  0.00145398 -0.00019411 -0.00017816
                   Y  0.01241174 -0.05400169  0.00368071 -0.00025086 -0.00058009
                   Z -0.00843811  0.04393995 -0.00298648  0.00032629  0.00049095
  6   C            X  0.00482093  0.01531268 -0.00096695  0.00058692  0.00053864
                   Y -0.01570329 -0.03144560  0.00542329 -0.00044008 -0.00061803
                   Z -0.00053190 -0.00858586  0.00020432 -0.00011284 -0.00003706
  7   C            X  0.04476947  0.00406588 -0.02994046  0.00025101  0.00018778
                   Y -0.01680582  0.00036673  0.01950988 -0.00022760 -0.00022655
                   Z -0.04839134 -0.00402057  0.03385948 -0.00063596 -0.00039592
  8   C            X -0.02438205 -0.00581444 -0.03754978 -0.00010412 -0.00007397
                   Y -0.02821200 -0.00816204 -0.06005792 -0.00004121  0.00016230
                   Z  0.01760701  0.00392589  0.02386450 -0.00003219 -0.00001879
  9   C            X  0.00110550  0.00068502  0.00156164 -0.00000469 -0.00010548
                   Y  0.00024393  0.00086069 -0.00064363  0.00003925  0.00003448
                   Z -0.00106215 -0.00045984 -0.00169918  0.00009183 -0.00016942
 10   O            X -0.00013023 -0.00004501 -0.00016216  0.00001253 -0.00001989
                   Y -0.00012991 -0.00018591  0.00022432 -0.00000949  0.00001462
                   Z  0.00009550  0.00000602  0.00021667 -0.00000426 -0.00001757
 11   H            X  0.00033568  0.00043563  0.00010966 -0.00865781 -0.00288636
                   Y -0.00706920 -0.00986561  0.00237277  0.58961342  0.21481581
                   Z -0.00233728 -0.00317777  0.00077734  0.20665018  0.07497340
 12   H            X -0.00000611 -0.00528165  0.00117290  0.25249494  0.09076045
                   Y  0.00062125 -0.01002209  0.00274274  0.40295129  0.14422401
                   Z -0.00094417  0.00933831 -0.00269879 -0.40685904 -0.14560705
 13   H            X -0.03533863  0.05610638 -0.00018405  0.01846494  0.03722927
                   Y -0.04388561  0.06962830 -0.00043495  0.01733041  0.04651621
                   Z  0.02472798 -0.03945077  0.00021339 -0.01284151 -0.02347288
 14   H            X  0.00218005 -0.00484975  0.00146777 -0.07655984  0.20904466
                   Y  0.00402027 -0.01017918  0.00261310 -0.17318634  0.47167434
                   Z -0.00306207  0.00794593 -0.00171815  0.11801253 -0.32039664
 15   H            X -0.00009969 -0.00724734  0.00047987 -0.18358143  0.50697315
                   Y -0.00011787  0.00232712 -0.00020417  0.05530990 -0.15172934
                   Z -0.00002510  0.00574153 -0.00034988  0.13127024 -0.36226619
 16   H            X -0.04787390  0.14292875 -0.01082599 -0.00091446  0.00587880
                   Y  0.02040893 -0.06290355  0.00484514  0.00056256 -0.00287634
                   Z  0.08637439 -0.25669495  0.01967124  0.00189347 -0.01180145
 17   H            X -0.05456495  0.25025219 -0.01556183  0.00151573  0.00270720
                   Y -0.13276137  0.59809532 -0.03828648  0.00330474  0.00645334
                   Z  0.10234915 -0.46462129  0.02964408 -0.00268721 -0.00486260
 18   H            X -0.07297277 -0.15603421  0.02101606 -0.00535050 -0.00399067
                   Y  0.16499674  0.34423095 -0.04903703  0.01057014  0.00847757
                   Z  0.02067455  0.04829195 -0.00624111  0.00105864  0.00094669
 19   H            X -0.50726912 -0.04107358  0.32945384 -0.00436012 -0.00298075
                   Y  0.19153046  0.01425665 -0.12658369  0.00196555  0.00125999
                   Z  0.54857441  0.04385098 -0.35637323  0.00451072  0.00296565
 20   H            X  0.26881116  0.06888835  0.44056550  0.00091431 -0.00016513
                   Y  0.36105292  0.09301390  0.59504816  0.00095963 -0.00048592
                   Z -0.18357731 -0.04724084 -0.30046549 -0.00023466  0.00032050

 TRANS. SAYVETZ    X  0.00000049  0.00000090  0.00000007 -0.00000007 -0.00000009
                   Y  0.00000009 -0.00000041  0.00000059 -0.00000002  0.00000000
                   Z -0.00000025 -0.00000066  0.00000057  0.00000006  0.00000008
               TOTAL  0.00000056  0.00000119  0.00000082  0.00000009  0.00000012

   ROT. SAYVETZ    X  0.00000124  0.00000326 -0.00000401 -0.00002239  0.00001113
                   Y  0.00002214 -0.00000379 -0.00000821 -0.00000605  0.00000524
                   Z -0.00001617 -0.00001581  0.00000410  0.00001414 -0.00000456
               TOTAL  0.00002745  0.00001658  0.00001001  0.00002717  0.00001312

 REFERENCE ON SAYVETZ CONDITIONS - A. SAYVETZ, J.CHEM.PHYS., 7, 383-389(1939).

 NOTE - THE MODES J,K ARE ORTHONORMALIZED ACCORDING TO
 SUM ON I   M(I) * (X(I,J)*X(I,K) + Y(I,J)*Y(I,K) + Z(I,J)*Z(I,K)) = DELTA(J,K)

  MODE FREQ(CM**-1)  SYMMETRY  RED. MASS  IR INTENS.
     1    1060.366    A        9.324721    0.064329
     2       0.145    A        6.649304    0.000118
     3       0.091    A        6.616846    0.000012
     4       0.008    A        6.706499    0.000000
     5       1.379    A        4.831199    0.013413
     6       5.007    A        4.930715    0.003899
     7       6.238    A        4.671452    0.011043
     8     104.131    A        4.137901    0.029764
     9     203.671    A        3.551406    0.016633
    10     265.245    A        4.167083    0.030699
    11     381.412    A        5.276967    0.035427
    12     437.613    A        2.307245    0.075452
    13     465.617    A        3.414207    0.109584
    14     493.042    A        3.992211    0.077129
    15     506.439    A        4.789793    0.104998
    16     552.687    A        1.961646    0.248739
    17     575.844    A        2.545774    0.264895
    18     610.977    A        4.901261    0.016012
    19     677.216    A        5.711255    0.076610
    20     840.259    A        3.287470    0.033021
    21     851.562    A        4.186023    0.032902
    22     926.855    A        1.667079    2.621744
    23     938.110    A        1.761291    0.121181
    24     964.340    A        1.772480    0.902737
    25    1004.119    A        1.456942    0.150428
    26    1040.445    A        1.586987    0.061894
    27    1092.366    A        1.590191    0.228101
    28    1119.736    A        2.732659    0.001835
    29    1166.736    A        2.141524    0.057038
    30    1209.133    A        1.282450    0.003082
    31    1214.218    A        1.508099    0.090257
    32    1240.834    A        1.141097    0.082508
    33    1270.216    A        1.287367    0.408551
    34    1301.612    A        1.134611    0.247659
    35    1318.495    A        1.219223    0.093697
    36    1341.283    A        1.231506    0.051304
    37    1365.533    A        1.156042    0.010769
    38    1386.068    A        1.275969    0.048817
    39    1418.708    A        1.831278    0.674021
    40    1471.057    A        1.323610    0.088150
    41    1488.626    A        1.670940    0.001693
    42    1599.389    A        1.598208    0.164880
    43    1637.161    A        1.712708    0.166615
    44    1668.014    A        1.524679    0.029333
    45    1718.728    A        2.486349    0.476514
    46    1758.373    A        1.912215    0.035436
    47    1813.503    A        1.256193    0.224313
    48    1856.577    A        2.349662    0.040077
    49    2009.744    A        7.078381    0.062105
    50    2080.654    A       10.639105    1.818337
    51    3630.078    A        1.062666    0.098848
    52    3634.318    A        1.064621    0.072453
    53    3686.086    A        1.091014    0.193408
    54    3693.056    A        1.094113    0.045485
    55    3695.663    A        1.095901    0.141583
    56    3704.053    A        1.091326    0.550325
    57    3712.802    A        1.100222    0.102351
    58    3736.281    A        1.106027    0.068362
    59    3777.403    A        1.116417    0.003196
    60    3780.007    A        1.116742    0.014825

     -------------------------------
     THERMOCHEMISTRY AT T=  298.15 K
     -------------------------------

 USING IDEAL GAS, RIGID ROTOR, HARMONIC NORMAL MODE APPROXIMATIONS.
 P=  1.01325E+05 PASCAL.
 ALL FREQUENCIES ARE SCALED BY   1.00000
 THE MOMENTS OF INERTIA ARE (IN AMU*BOHR**2)
            852.46068          1312.32349          1651.70343
 THE ROTATIONAL SYMMETRY NUMBER IS  1.0
 THE ROTATIONAL CONSTANTS ARE (IN GHZ)
      2.11516     1.37397     1.09165
   1 IMAGINARY FREQUENCY VIBRATION(S) IS(ARE) EXCLUDED
     FROM THE FOLLOWING THERMOCHEMICAL ANALYSIS.
      8 -     60 VIBRATIONAL MODES ARE USED IN THERMOCHEMISTRY.
 THE HARMONIC ZERO POINT ENERGY IS (SCALED BY   1.000)
        0.192360 HARTREE/MOLECULE    42218.049678 CM**-1/MOLECULE 
      120.707582 KCAL/MOL              505.040525 KJ/MOL

               Q               LN Q
 ELEC.     1.00000E+00       0.000000
 TRANS.    6.10192E+07      17.926699
 ROT.      4.86592E+05      13.095182
 VIB.      1.44464E+01       2.670448
 TOT.      4.28936E+14      33.692329

              E         H         G         CV        CP        S
           KJ/MOL    KJ/MOL    KJ/MOL   J/MOL-K   J/MOL-K   J/MOL-K
 ELEC.      0.000     0.000     0.000     0.000     0.000     0.000
 TRANS.     3.718     6.197   -44.439    12.472    20.786   169.836
 ROT.       3.718     3.718   -32.462    12.472    12.472   121.350
 VIB.     516.151   516.151   498.421    93.000    93.000    59.469
 TOTAL    523.588   526.067   421.519   117.943   126.257   350.655
 VIB. THERMAL CORRECTION E(T)-E(0) = H(T)-H(0) =     11110.726 J/MOL

              E         H         G         CV        CP        S
         KCAL/MOL  KCAL/MOL  KCAL/MOL CAL/MOL-K CAL/MOL-K CAL/MOL-K
 ELEC.      0.000     0.000     0.000     0.000     0.000     0.000
 TRANS.     0.889     1.481   -10.621     2.981     4.968    40.592
 ROT.       0.889     0.889    -7.759     2.981     2.981    29.003
 VIB.     123.363   123.363   119.125    22.227    22.227    14.213
 TOTAL    125.141   125.733   100.746    28.189    30.176    83.809
 VIB. THERMAL CORRECTION E(T)-E(0) = H(T)-H(0) =      2655.527 CAL/MOL
 ......END OF NORMAL COORDINATE ANALYSIS......
 STEP CPU TIME =     0.02 TOTAL CPU TIME =         66.7 (      1.1 MIN)
 TOTAL WALL CLOCK TIME=         66.9 SECONDS, CPU UTILIZATION IS    99.66%
               580000  WORDS OF DYNAMIC MEMORY USED
 EXECUTION OF GAMESS TERMINATED NORMALLY Sat Nov 13 17:10:24 2021
 DDI: 263640 bytes (0.3 MB / 0 MWords) used by master data server.

 ----------------------------------------
 CPU timing information for all processes
 ========================================
 0: 65.957 + 0.712 = 66.670
 ----------------------------------------
 ddikick.x: exited gracefully.
----- accounting info -----
Files used on the master node chemcompute-node-0.novalocal were:
-rw-r--r--. 1 chemcomp chemcomp     1519 Nov 13 17:09 /scratch/306057/341959.F05
-rw-rw-r--. 1 chemcomp chemcomp 18001600 Nov 13 17:09 /scratch/306057/341959.F08
-rw-rw-r--. 1 chemcomp chemcomp 70451200 Nov 13 17:10 /scratch/306057/341959.F10
-rw-rw-r--. 1 chemcomp chemcomp   878880 Nov 13 17:10 /scratch/306057/341959.F18
Sat Nov 13 17:10:27 UTC 2021
0.108u 0.097s 1:10.67 0.2%	0+0k 8+216io 0pf+0w
Finishing Up...
Looking for IR data...
Looking for Raman data...
vibramans not found
Looking for thermodynamics data...
Looking for UV-Vis data...
306057
