----- GAMESS execution script 'rungms' -----
This job is running on host chemcompute-node-0.novalocal
under operating system Linux at Sat Nov 13 15:48:37 UTC 2021
SLURM has assigned the following compute nodes to this run:
chemcompute-node-0
Available scratch disk space (Kbyte units) at beginning of the job is
Filesystem     1K-blocks     Used Available Use% Mounted on
/dev/sda1       62903276 23349864  39553412  38% /
GAMESS temporary binary files will be written to /scratch/306012
GAMESS supplementary output files will be written to /data/slurm/341914
Copying input file 341914.inp to your run's scratch directory...
The generated host list is
chemcompute-node-0.novalocal

 Distributed Data Interface kickoff program.
 Initiating 1 compute processes on 1 nodes to run the following command:
 /data/gamess-2019R1-ddi/gamess.00.x 341914 

          ******************************************************
          *         GAMESS VERSION = 30 JUN 2019 (R1)          *
          *             FROM IOWA STATE UNIVERSITY             *
          * M.W.SCHMIDT, K.K.BALDRIDGE, J.A.BOATZ, S.T.ELBERT, *
          *   M.S.GORDON, J.H.JENSEN, S.KOSEKI, N.MATSUNAGA,   *
          *          K.A.NGUYEN, S.J.SU, T.L.WINDUS,           *
          *       TOGETHER WITH M.DUPUIS, J.A.MONTGOMERY       *
          *         J.COMPUT.CHEM.  14, 1347-1363(1993)        *
          **************** 64 BIT LINUX VERSION ****************

  SINCE 1993, STUDENTS AND POSTDOCS WORKING AT IOWA STATE UNIVERSITY
  AND ALSO IN THEIR VARIOUS JOBS AFTER LEAVING ISU HAVE MADE IMPORTANT
  CONTRIBUTIONS TO THE CODE:
     IVANA ADAMOVIC, CHRISTINE AIKENS, YURI ALEXEEV, POOJA ARORA,
     ANDREY ASADCHEV, ROB BELL, PRADIPTA BANDYOPADHYAY, JONATHAN BENTZ,
     COLLEEN BERTONI, BRETT BODE, KURT BRORSEN, CALEB CARLIN, GALINA CHABAN,
     WEI CHEN, CHEOL HO CHOI, PAUL DAY, ALBERT DEFUSCO, NUWAN DESILVA,
     TIM DUDLEY, DMITRI FEDOROV, ALEX FINDLATER, GRAHAM FLETCHER, 
     MARK FREITAG, KURT GLAESEMANN, ANASTASIA GUNINA,
     DAN KEMP, GRANT MERRILL, NORIYUKI MINEZAWA, JONATHAN MULLIN,
     TAKESHI NAGATA, SEAN NEDD, HEATHER NETZLOFF, BOSILJKA NJEGIC, RYAN OLSON,
     MIKE PAK, BUU PHAM,
     SPENCER PRUITT, LUKE ROSKOP, JIM SHOEMAKER, LYUDMILA SLIPCHENKO,
     TONY SMITH, SAROM SOK LEANG, JIE SONG, TETSUYA TAKETSUGU, SIMON WEBB,
     PENG XU, SOOHAENG YOO, FEDERICO ZAHARIEV

  ADDITIONAL CODE HAS BEEN PROVIDED BY COLLABORATORS IN OTHER GROUPS:
     IOWA STATE UNIVERSITY:
          JOE IVANIC, AARON WEST, LAIMUTIS BYTAUTAS, KLAUS RUEDENBERG
     UNIVERSITY OF TOKYO: KIMIHIKO HIRAO, TAKAHITO NAKAJIMA,
          TAKAO TSUNEDA, MUNEAKI KAMIYA, SUSUMU YANAGISAWA,
          KIYOSHI YAGI, MAHITO CHIBA, SEIKEN TOKURA, NAOAKI KAWAKAMI
     UNIVERSITY OF AARHUS: FRANK JENSEN
     UNIVERSITY OF IOWA: VISVALDAS KAIRYS, HUI LI
     NATIONAL INST. OF STANDARDS AND TECHNOLOGY: WALT STEVENS, DAVID GARMER
     UNIVERSITY OF PISA: BENEDETTA MENNUCCI, JACOPO TOMASI
     UNIVERSITY OF MEMPHIS: HENRY KURTZ, PRAKASHAN KORAMBATH
     UNIVERSITY OF ALBERTA: TOBY ZENG, MARIUSZ KLOBUKOWSKI
     UNIVERSITY OF NEW ENGLAND: MARK SPACKMAN
     MIE UNIVERSITY: HIROAKI UMEDA
     NAT. INST. OF ADVANCED INDUSTRIAL SCIENCE AND TECHNOLOGY: KAZUO KITAURA
     MICHIGAN STATE UNIVERSITY:
          KAROL KOWALSKI, MARTA WLOCH, JEFFREY GOUR, JESSE LUTZ,
          WEI LI, JUN SHEN, J. EMILIANO DEUSTUA, PIOTR PIECUCH
     UNIVERSITY OF MINNESOTA:
          YINAN SHU
     UNIVERSITY OF SILESIA: MONIKA MUSIAL, STANISLAW KUCHARSKI
     FACULTES UNIVERSITAIRES NOTRE-DAME DE LA PAIX:
          OLIVIER QUINET, BENOIT CHAMPAGNE
     UNIVERSITY OF CALIFORNIA - SANTA BARBARA: BERNARD KIRTMAN
     INSTITUTE FOR MOLECULAR SCIENCE:
          KAZUYA ISHIMURA, MICHIO KATOUDA, AND SHIGERU NAGASE
     UNIVERSITY OF NOTRE DAME: ANNA POMOGAEVA, DAN CHIPMAN
     KYUSHU UNIVERSITY:
          HARUYUKI NAKANO,
          FENG LONG GU, JACEK KORCHOWIEC, MARCIN MAKOWSKI, AND YURIKO AOKI,
          HIROTOSHI MORI AND EISAKU MIYOSHI
     PENNSYLVANIA STATE UNIVERSITY:
          TZVETELIN IORDANOV, CHET SWALINA, JONATHAN SKONE,
          SHARON HAMMES-SCHIFFER
     WASEDA UNIVERSITY:
          MASATO KOBAYASHI, TOMOKO AKAMA, TSUGUKI TOUMA,
          TAKESHI YOSHIKAWA, YASUHIRO IKABATA, JUNJI SEINO,
          YUYA NAKAJIMA, HIROMI NAKAI
     NANJING UNIVERSITY: SHUHUA LI
     UNIVERSITY OF NEBRASKA:
          PEIFENG SU, DEJUN SI, NANDUN THELLAMUREGE, YALI WANG, HUI LI
     UNIVERSITY OF ZURICH: ROBERTO PEVERATI, KIM BALDRIDGE
     N. COPERNICUS UNIVERSITY AND JACKSON STATE UNIVERSITY:
          MARIA BARYSZ
     UNIVERSITY OF COPENHAGEN: Jimmy Kromann, CASPER STEINMANN
     TOKYO INSTITUTE OF TECHNOLOGY: HIROYA NAKATA
     NAGOYA UNIVERSITY: YOSHIO NISHIMOTO, STEPHAN IRLE
     MOSCOW STATE UNIVERSITY: VLADIMIR MIRONOV
     A.N.NESMEYANOV INSTITUTE OF ORGANOELEMENT COMPOUNDS OF RUSSIAN ACADEMY OF SCIENCES:
          IGOR S. GERASIMOV

 EXECUTION OF GAMESS BEGUN Sat Nov 13 15:48:38 2021

            ECHO OF THE FIRST FEW INPUT CARDS -
 INPUT CARD>!File created by the GAMESS Input Deck Generator Plugin for Avogadro            
 INPUT CARD> $BASIS GBASIS=STO NGAUSS=3 $END                                                
 INPUT CARD> $CONTRL SCFTYP=RHF RUNTYP=OPTIMIZE NZVAR=1 mult=1 ICHARG=0 $END                
 INPUT CARD> $STATPT hssend=.t. OPTTOL=0.0005 NSTEP=50 $END                                 
 INPUT CARD> $STATPT HESS=calc ihrep=5 $END                                                 
 INPUT CARD> $FORCE nvib=2 $END                                                             
 INPUT CARD> $ZMAT DLC=.t. auto=.t. nonvdw(1)=1,6,3,4 $END                                  
 INPUT CARD> $ZMAT IFZMAT(1)=1,1,6,1,3,4 fvalue(1)=2.00,2.00 $END                           
 INPUT CARD>                                                                                
 INPUT CARD>                                                                                
 INPUT CARD> $DATA                                                                          
 INPUT CARD>Title                                                                           
 INPUT CARD>C1                                                                              
 INPUT CARD>C     6.0     4.20121    -2.37975    -2.95511                                   
 INPUT CARD>C     6.0     3.06951    -2.10000    -2.25959                                   
 INPUT CARD>C     6.0     2.96561    -0.81819    -1.46124                                   
 INPUT CARD>C     6.0     4.57520    -0.77875    -0.29715                                   
 INPUT CARD>C     6.0     5.18340    -2.13973    -0.49369                                   
 INPUT CARD>C     6.0     5.76463    -2.36511    -1.70374                                   
 INPUT CARD>C     6.0     6.65061    -1.27725    -2.18329                                   
 INPUT CARD>C     6.0     6.51082     0.00071    -1.80188                                   
 INPUT CARD>C     6.0     5.42277     0.35178    -0.85312                                   
 INPUT CARD>O     8.0     5.21424     1.53211    -0.57984                                   
 INPUT CARD>H     1.0     4.28097    -3.35907    -3.43365                                   
 INPUT CARD>H     1.0     4.66132    -1.53445    -3.47870                                   
 INPUT CARD>H     1.0     2.38808    -2.90357    -1.99191                                   
 INPUT CARD>H     1.0     3.00620     0.09651    -2.08044                                   
 INPUT CARD>H     1.0     2.13423    -0.82018    -0.77221                                   
 INPUT CARD>H     1.0     4.20640    -0.57630     0.71068                                   
 INPUT CARD>H     1.0     4.80677    -2.96724     0.09945                                   
 INPUT CARD>H     1.0     6.10135    -3.38166    -1.93688                                   
 INPUT CARD>H     1.0     7.44554    -1.56377    -2.86685                                   
 INPUT CARD>H     1.0     7.14853     0.80127    -2.15101                                   
 INPUT CARD> $END                                                                           
    1000000 WORDS OF MEMORY AVAILABLE

     BASIS OPTIONS
     -------------
     GBASIS=STO          IGAUSS=       3      POLAR=NONE    
     NDFUNC=       0     NFFUNC=       0     DIFFSP=       F
     NPFUNC=       0      DIFFS=       F     BASNAM=        


     RUN TITLE
     ---------
 Title                                                                           

 THE POINT GROUP OF THE MOLECULE IS C1      
 THE ORDER OF THE PRINCIPAL AXIS IS     0

 ATOM      ATOMIC                      COORDINATES (BOHR)
           CHARGE         X                   Y                   Z
 C           6.0     7.9391357169       -4.4970754193       -5.5843481636
 C           6.0     5.8005328166       -3.9684245742       -4.2700059446
 C           6.0     5.6041902864       -1.5461549059       -2.7613432023
 C           6.0     8.6458743390       -1.4716241129       -0.5615320773
 C           6.0     9.7952056848       -4.0435033877       -0.9329388229
 C           6.0    10.8935711206       -4.4694098308       -3.2196017543
 C           6.0    12.5678305512       -2.4136525178       -4.1258198517
 C           6.0    12.3036657554        0.0013417055       -3.4050594628
 C           6.0    10.2475493944        0.6647678080       -1.6121630346
 O           8.0     9.8534848342        2.8952680830       -1.0957387167
 H           1.0     8.0898602617       -6.3477218736       -6.4886576377
 H           1.0     8.8086175411       -2.8996900419       -6.5737897935
 H           1.0     4.5128168368       -5.4869516862       -3.7641640922
 H           1.0     5.6808942643        0.1823774551       -3.9314615339
 H           1.0     4.0331098948       -1.5499154606       -1.4592653050
 H           1.0     7.9489433948       -1.0890490867        1.3429904650
 H           1.0     9.0834781860       -5.6072705398        0.1879332495
 H           1.0    11.5298796552       -6.3904107836       -3.6601724711
 H           1.0    14.0700304306       -2.9550968078       -5.4175609479
 H           1.0    13.5087629150        1.5141807422       -4.0648194968

          INTERNUCLEAR DISTANCES (ANGS.)
          ------------------------------

                1 C          2 C          3 C          4 C          5 C     

   1 C       0.0000000    1.3574804 *  2.4893422 *  3.1253513    2.6609952 *
   2 C       1.3574804 *  0.0000000    1.5136693 *  2.8042779 *  2.7547254 *
   3 C       2.4893422 *  1.5136693 *  0.0000000    1.9868168 *  2.7570298 *
   4 C       3.1253513    2.8042779 *  1.9868168 *  0.0000000    1.5035963 *
   5 C       2.6609952 *  2.7547254 *  2.7570298 *  1.5035963 *  0.0000000  
   6 C       2.0026041 *  2.7645839 *  3.2072232    2.4310033 *  1.3611927 *
   7 C       2.7947760 *  3.6751893    3.7830302    2.8483948 *  2.3981920 *
   8 C       3.5115278    4.0577205    3.6544694    2.5726242 *  2.8381135 *
   9 C       3.6567509    3.6779363    2.7885973 *  1.5184122 *  2.5286577 *
  10 O       4.6873005    4.5402258    3.3700316    2.4141996 *  3.6729800  
  11 H       1.0928997 *  2.1050676 *  3.4751467    4.0721315    3.3082525  
  12 H       1.0956185 *  2.0832511 *  2.7310448 *  3.2712015    3.0901806  
  13 H       2.1188634 *  1.0870714 *  2.2279949 *  3.4886337    3.2621969  
  14 H       2.8853007 *  2.2047129 *  1.1053200 *  2.5313957 *  3.5012490  
  15 H       3.3866971    2.1737036 *  1.0797958 *  2.4871134 *  3.3341001  
  16 H       4.0853978    3.5265684    2.5130275 *  1.0921176 *  2.2021239 *
  17 H       3.1689405    3.0553637    3.2317239    2.2361585 *  1.0855588 *
  18 H       2.3772143 *  3.3073929    4.0780482    3.4340921    2.1137218 *
  19 H       3.3465341    4.4503872    4.7540932    3.9317256    3.3287979  
  20 H       4.4104603    5.0067516    4.5381993    3.5433441    3.9061396  

                6 C          7 C          8 C          9 C         10 O     

   1 C       2.0026041 *  2.7947760 *  3.5115278    3.6567509    4.6873005  
   2 C       2.7645839 *  3.6751893    4.0577205    3.6779363    4.5402258  
   3 C       3.2072232    3.7830302    3.6544694    2.7885973 *  3.3700316  
   4 C       2.4310033 *  2.8483948 *  2.5726242 *  1.5184122 *  2.4141996 *
   5 C       1.3611927 *  2.3981920 *  2.8381135 *  2.5286577 *  3.6729800  
   6 C       0.0000000    1.4826895 *  2.4826468 *  2.8673880 *  4.0932144  
   7 C       1.4826895 *  0.0000000    1.3409685 *  2.4352992 *  3.5393099  
   8 C       2.4826468 *  1.3409685 *  0.0000000    1.4856812 *  2.3494015 *
   9 C       2.8673880 *  2.4352992 *  1.4856812 *  0.0000000    1.2293680 *
  10 O       4.0932144    3.5393099    2.3494015 *  1.2293680 *  0.0000000  
  11 H       2.4863210 *  3.3930176    4.3500605    4.6618934    5.7392392  
  12 H       2.2489491 *  2.3877842 *  2.9307152 *  3.3213461    4.2559253  
  13 H       3.4313366    4.5662572    5.0465769    4.5938535    5.4457671  
  14 H       3.7162363    3.8960902    3.5169781    2.7223680 *  3.0312025  
  15 H       4.0539315    4.7537089    4.5704071    3.4920670    3.8803010  
  16 H       3.3848701    3.8523442    3.4577811    2.1877749 *  2.6695648 *
  17 H       2.1287439 *  3.3862537    3.9150440    3.5075261    4.5685465  
  18 H       1.0959510 *  2.1888229 *  3.4097386    3.9463376    5.1743268  
  19 H       2.1955476 *  1.0868586 *  2.1107961 *  3.4374466    4.4489985  
  20 H       3.4844213    2.1375715 *  1.0814167 *  2.2056308 *  2.5969559 *

               11 H         12 H         13 H         14 H         15 H     

   1 C       1.0928997 *  1.0956185 *  2.1188634 *  2.8853007 *  3.3866971  
   2 C       2.1050676 *  2.0832511 *  1.0870714 *  2.2047129 *  2.1737036 *
   3 C       3.4751467    2.7310448 *  2.2279949 *  1.1053200 *  1.0797958 *
   4 C       4.0721315    3.2712015    3.4886337    2.5313957 *  2.4871134 *
   5 C       3.3082525    3.0901806    3.2621969    3.5012490    3.3341001  
   6 C       2.4863210 *  2.2489491 *  3.4313366    3.7162363    4.0539315  
   7 C       3.3930176    2.3877842 *  4.5662572    3.8960902    4.7537089  
   8 C       4.3500605    2.9307152 *  5.0465769    3.5169781    4.5704071  
   9 C       4.6618934    3.3213461    4.5938535    2.7223680 *  3.4920670  
  10 O       5.7392392    4.2559253    5.4457671    3.0312025    3.8803010  
  11 H       0.0000000    1.8643856 *  2.4226281 *  3.9239328    4.2588400  
  12 H       1.8643856 *  0.0000000    3.0418176    2.7119336 *  3.7711343  
  13 H       2.4226281 *  3.0418176    0.0000000    3.0643743    2.4274723 *
  14 H       3.9239328    2.7119336 *  3.0643743    0.0000000    1.8199225 *
  15 H       4.2588400    3.7711343    2.4274723 *  1.8199225 *  0.0000000  
  16 H       4.9924784    4.3215632    4.0033069    3.1118329    2.5597517 *
  17 H       3.5934374    3.8570974    3.1981091    4.1689971    3.5372486  
  18 H       2.3568229 *  2.8041184 *  3.7443254    4.6581358    4.8637102  
  19 H       3.6822368    2.8508071 *  5.3045722    4.8044469    5.7576433  
  20 H       5.2131080    3.6612241    6.0343215    4.2024475    5.4473291  

               16 H         17 H         18 H         19 H         20 H     

   1 C       4.0853978    3.1689405    2.3772143 *  3.3465341    4.4104603  
   2 C       3.5265684    3.0553637    3.3073929    4.4503872    5.0067516  
   3 C       2.5130275 *  3.2317239    4.0780482    4.7540932    4.5381993  
   4 C       1.0921176 *  2.2361585 *  3.4340921    3.9317256    3.5433441  
   5 C       2.2021239 *  1.0855588 *  2.1137218 *  3.3287979    3.9061396  
   6 C       3.3848701    2.1287439 *  1.0959510 *  2.1955476 *  3.4844213  
   7 C       3.8523442    3.3862537    2.1888229 *  1.0868586 *  2.1375715 *
   8 C       3.4577811    3.9150440    3.4097386    2.1107961 *  1.0814167 *
   9 C       2.1877749 *  3.5075261    3.9463376    3.4374466    2.2056308 *
  10 O       2.6695648 *  4.5685465    5.1743268    4.4489985    2.5969559 *
  11 H       4.9924784    3.5934374    2.3568229 *  3.6822368    5.2131080  
  12 H       4.3215632    3.8570974    2.8041184 *  2.8508071 *  3.6612241  
  13 H       4.0033069    3.1981091    3.7443254    5.3045722    6.0343215  
  14 H       3.1118329    4.1689971    4.6581358    4.8044469    4.2024475  
  15 H       2.5597517 *  3.5372486    4.8637102    5.7576433    5.4473291  
  16 H       0.0000000    2.5398111 *  4.2977266    4.9260375    4.3293299  
  17 H       2.5398111 *  0.0000000    2.4483303 *  4.2109109    4.9749450  
  18 H       4.2977266    2.4483303 *  0.0000000    2.4446707 *  4.3173303  
  19 H       4.9260375    4.2109109    2.4446707 *  0.0000000    2.4887861 *
  20 H       4.3293299    4.9749450    4.3173303    2.4887861 *  0.0000000  

  * ... LESS THAN  3.000


     ATOMIC BASIS SET
     ----------------
 THE CONTRACTED PRIMITIVE FUNCTIONS HAVE BEEN UNNORMALIZED
 THE CONTRACTED BASIS FUNCTIONS ARE NOW NORMALIZED TO UNITY

  SHELL TYPE  PRIMITIVE        EXPONENT          CONTRACTION COEFFICIENT(S)

 C         

      1   S       1            71.6168373    0.154328967295
      1   S       2            13.0450963    0.535328142282
      1   S       3             3.5305122    0.444634542185

      2   L       4             2.9412494   -0.099967229187    0.155916274999
      2   L       5             0.6834831    0.399512826089    0.607683718598
      2   L       6             0.2222899    0.700115468880    0.391957393099

 C         

      3   S       7            71.6168373    0.154328967295
      3   S       8            13.0450963    0.535328142282
      3   S       9             3.5305122    0.444634542185

      4   L      10             2.9412494   -0.099967229187    0.155916274999
      4   L      11             0.6834831    0.399512826089    0.607683718598
      4   L      12             0.2222899    0.700115468880    0.391957393099

 C         

      5   S      13            71.6168373    0.154328967295
      5   S      14            13.0450963    0.535328142282
      5   S      15             3.5305122    0.444634542185

      6   L      16             2.9412494   -0.099967229187    0.155916274999
      6   L      17             0.6834831    0.399512826089    0.607683718598
      6   L      18             0.2222899    0.700115468880    0.391957393099

 C         

      7   S      19            71.6168373    0.154328967295
      7   S      20            13.0450963    0.535328142282
      7   S      21             3.5305122    0.444634542185

      8   L      22             2.9412494   -0.099967229187    0.155916274999
      8   L      23             0.6834831    0.399512826089    0.607683718598
      8   L      24             0.2222899    0.700115468880    0.391957393099

 C         

      9   S      25            71.6168373    0.154328967295
      9   S      26            13.0450963    0.535328142282
      9   S      27             3.5305122    0.444634542185

     10   L      28             2.9412494   -0.099967229187    0.155916274999
     10   L      29             0.6834831    0.399512826089    0.607683718598
     10   L      30             0.2222899    0.700115468880    0.391957393099

 C         

     11   S      31            71.6168373    0.154328967295
     11   S      32            13.0450963    0.535328142282
     11   S      33             3.5305122    0.444634542185

     12   L      34             2.9412494   -0.099967229187    0.155916274999
     12   L      35             0.6834831    0.399512826089    0.607683718598
     12   L      36             0.2222899    0.700115468880    0.391957393099

 C         

     13   S      37            71.6168373    0.154328967295
     13   S      38            13.0450963    0.535328142282
     13   S      39             3.5305122    0.444634542185

     14   L      40             2.9412494   -0.099967229187    0.155916274999
     14   L      41             0.6834831    0.399512826089    0.607683718598
     14   L      42             0.2222899    0.700115468880    0.391957393099

 C         

     15   S      43            71.6168373    0.154328967295
     15   S      44            13.0450963    0.535328142282
     15   S      45             3.5305122    0.444634542185

     16   L      46             2.9412494   -0.099967229187    0.155916274999
     16   L      47             0.6834831    0.399512826089    0.607683718598
     16   L      48             0.2222899    0.700115468880    0.391957393099

 C         

     17   S      49            71.6168373    0.154328967295
     17   S      50            13.0450963    0.535328142282
     17   S      51             3.5305122    0.444634542185

     18   L      52             2.9412494   -0.099967229187    0.155916274999
     18   L      53             0.6834831    0.399512826089    0.607683718598
     18   L      54             0.2222899    0.700115468880    0.391957393099

 O         

     19   S      55           130.7093214    0.154328967295
     19   S      56            23.8088661    0.535328142282
     19   S      57             6.4436083    0.444634542185

     20   L      58             5.0331513   -0.099967229187    0.155916274999
     20   L      59             1.1695961    0.399512826089    0.607683718598
     20   L      60             0.3803890    0.700115468880    0.391957393099

 H         

     21   S      61             3.4252509    0.154328967295
     21   S      62             0.6239137    0.535328142282
     21   S      63             0.1688554    0.444634542185

 H         

     22   S      64             3.4252509    0.154328967295
     22   S      65             0.6239137    0.535328142282
     22   S      66             0.1688554    0.444634542185

 H         

     23   S      67             3.4252509    0.154328967295
     23   S      68             0.6239137    0.535328142282
     23   S      69             0.1688554    0.444634542185

 H         

     24   S      70             3.4252509    0.154328967295
     24   S      71             0.6239137    0.535328142282
     24   S      72             0.1688554    0.444634542185

 H         

     25   S      73             3.4252509    0.154328967295
     25   S      74             0.6239137    0.535328142282
     25   S      75             0.1688554    0.444634542185

 H         

     26   S      76             3.4252509    0.154328967295
     26   S      77             0.6239137    0.535328142282
     26   S      78             0.1688554    0.444634542185

 H         

     27   S      79             3.4252509    0.154328967295
     27   S      80             0.6239137    0.535328142282
     27   S      81             0.1688554    0.444634542185

 H         

     28   S      82             3.4252509    0.154328967295
     28   S      83             0.6239137    0.535328142282
     28   S      84             0.1688554    0.444634542185

 H         

     29   S      85             3.4252509    0.154328967295
     29   S      86             0.6239137    0.535328142282
     29   S      87             0.1688554    0.444634542185

 H         

     30   S      88             3.4252509    0.154328967295
     30   S      89             0.6239137    0.535328142282
     30   S      90             0.1688554    0.444634542185

 TOTAL NUMBER OF BASIS SET SHELLS             =   30
 NUMBER OF CARTESIAN GAUSSIAN BASIS FUNCTIONS =   60
 NUMBER OF ELECTRONS                          =   72
 CHARGE OF MOLECULE                           =    0
 SPIN MULTIPLICITY                            =    1
 NUMBER OF OCCUPIED ORBITALS (ALPHA)          =   36
 NUMBER OF OCCUPIED ORBITALS (BETA )          =   36
 TOTAL NUMBER OF ATOMS                        =   20
 THE NUCLEAR REPULSION ENERGY IS      505.3077036492

     $CONTRL OPTIONS
     ---------------
 SCFTYP=RHF          RUNTYP=OPTIMIZE     EXETYP=RUN     
 MPLEVL=       0     CITYP =NONE         CCTYP =NONE         VBTYP =NONE    
 DFTTYP=NONE         TDDFT =NONE    
 MULT  =       1     ICHARG=       0     NZVAR =       1     COORD =UNIQUE  
 PP    =NONE         RELWFN=NONE         LOCAL =NONE         NUMGRD=       F
 ISPHER=      -1     NOSYM =       0     MAXIT =      30     UNITS =ANGS    
 PLTORB=       F     MOLPLT=       F     AIMPAC=       F     FRIEND=        
 NPRINT=       7     IREST =       0     GEOM  =INPUT   
 NORMF =       0     NORMP =       0     ITOL  =      20     ICUT  =       9
 INTTYP=BEST         GRDTYP=BEST         QMTTOL= 1.0E-06

     $SYSTEM OPTIONS
     ---------------
  REPLICATED MEMORY=     1000000 WORDS (ON EVERY NODE).
 DISTRIBUTED MEMDDI=           0 MILLION WORDS IN AGGREGATE,
 MEMDDI DISTRIBUTED OVER   1 PROCESSORS IS           0 WORDS/PROCESSOR.
 TOTAL MEMORY REQUESTED ON EACH PROCESSOR=     1000000 WORDS.
 TIMLIM=      525600.00 MINUTES, OR     365.0 DAYS.
 PARALL= F  BALTYP=  DLB     KDIAG=    0  COREFL= F
 MXSEQ2=     300 MXSEQ3=     150  mem10=         0

          ----------------
          PROPERTIES INPUT
          ----------------

     MOMENTS            FIELD           POTENTIAL          DENSITY
 IEMOM =       1   IEFLD =       0   IEPOT =       0   IEDEN =       0
 WHERE =COMASS     WHERE =NUCLEI     WHERE =NUCLEI     WHERE =NUCLEI  
 OUTPUT=BOTH       OUTPUT=BOTH       OUTPUT=BOTH       OUTPUT=BOTH    
 IEMINT=       0   IEFINT=       0                     IEDINT=       0
                                                       MORB  =       0
          EXTRAPOLATION IN EFFECT
          SOSCF IN EFFECT
 ORBITAL PRINTING OPTION: NPREO=     1    60     2     1

     -------------------------------
     INTEGRAL TRANSFORMATION OPTIONS
     -------------------------------
     NWORD  =            0
     CUTOFF = 1.0E-09     MPTRAN =       0
     DIRTRF =       F     AOINTS =DUP     

          ----------------------
          INTEGRAL INPUT OPTIONS
          ----------------------
 NOPK  =       1 NORDER=       0 SCHWRZ=       T


 -----------------------------------------------
  STATISTICS ON AUTOMATIC COORDINATE GENERATION 
 -----------------------------------------------
  NUMBER OF USER SPECIFIED BONDS                             2
  NUMBER OF BONDS                                           21
  NUMBER OF ANGLES                                          39
  NUMBER OF TORSIONS                                        62
  NUMBER OF EXTRA COORD.                                     0
  NUMBER OF EXTRA COORD. FOR CONSTRAINTS                     0
  NUMBER OF CONSTRAINED COORD.                               2

  TOTAL NUMBER OF PRIMITIVES                               122
 -----------------------------------------------

   --- ENCODED Z MATRIX ---
 COORD  TYPE   I   J   K   L   M   N
    1      1    1   6
    2      1    3   4
    3      1    1   2
    4      1    1  12
    5      1    1  11
    6      1    2  13
    7      1    2   3
    8      1    3  14
    9      1    3  15
   10      1    4   9
   11      1    4   5
   12      1    4  16
   13      1    5   6
   14      1    5  17
   15      1    6   7
   16      1    6  18
   17      1    7   8
   18      1    7  19
   19      1    8  20
   20      1    8   9
   21      1    9  10
   22      2    1   2  13
   23      2    1   6   7
   24      2    1   6   5
   25      2    1   6  18
   26      2    1   2   3
   27      2    2   1  12
   28      2    2   1  11
   29      2    2   3  15
   30      2    2   3   4
   31      2    2   1   6
   32      2    2   3  14
   33      2    3   2  13
   34      2    3   4  16
   35      2    3   4   5
   36      2    3   4   9
   37      2    4   5  17
   38      2    4   5   6
   39      2    4   9  10
   40      2    4   9   8
   41      2    4   3  15
   42      2    4   3  14
   43      2    5   6   7
   44      2    5   4  16
   45      2    5   4   9
   46      2    5   6  18
   47      2    6   5  17
   48      2    6   1  12
   49      2    6   1  11
   50      2    6   7  19
   51      2    6   7   8
   52      2    7   8  20
   53      2    7   8   9
   54      2    7   6  18
   55      2    8   9  10
   56      2    8   7  19
   57      2    9   4  16
   58      2    9   8  20
   59      2   11   1  12
   60      2   14   3  15
   61      3    1   6   5  17
   62      3    1   6   5   4
   63      3    1   2   3  15
   64      3    1   2   3   4
   65      3    1   2   3  14
   66      3    1   6   7   8
   67      3    1   6   7  19
   68      3    2   3   4   9
   69      3    2   1   6  18
   70      3    2   1   6   5
   71      3    2   1   6   7
   72      3    2   3   4  16
   73      3    2   3   4   5
   74      3    3   4   9  10
   75      3    3   4   9   8
   76      3    3   4   5  17
   77      3    3   4   5   6
   78      3    3   2   1  11
   79      3    3   2   1   6
   80      3    3   2   1  12
   81      3    4   3   2  13
   82      3    4   9   8  20
   83      3    4   9   8   7
   84      3    4   5   6  18
   85      3    4   5   6   7
   86      3    5   4   3  15
   87      3    5   4   3  14
   88      3    5   6   1  11
   89      3    5   6   7  19
   90      3    5   6   7   8
   91      3    5   6   1  12
   92      3    5   4   9   8
   93      3    5   4   9  10
   94      3    6   5   4  16
   95      3    6   5   4   9
   96      3    6   7   8   9
   97      3    6   7   8  20
   98      3    6   1   2  13
   99      3    7   8   9  10
  100      3    7   6   1  11
  101      3    7   6   1  12
  102      3    7   6   5  17
  103      3    8   7   6  18
  104      3    8   9   4  16
  105      3    9   4   5  17
  106      3    9   8   7  19
  107      3    9   4   3  15
  108      3    9   4   3  14
  109      3   10   9   8  20
  110      3   10   9   4  16
  111      3   11   1   2  13
  112      3   11   1   6  18
  113      3   12   1   6  18
  114      3   12   1   2  13
  115      3   13   2   3  15
  116      3   13   2   3  14
  117      3   14   3   4  16
  118      3   15   3   4  16
  119      3   16   4   5  17
  120      3   17   5   6  18
  121      3   18   6   7  19
  122      3   19   7   8  20

          INDEP./SYM. INTERNAL COORDINATES
          --------------------------------
 CRD  1=   1.0000 (  1)
 CRD  2=   1.0000 (  2)
 CRD  3=   0.1208 (  5) -0.1222 (  9) -0.2773 ( 10)  0.2781 ( 15)  0.2387 ( 17)
          -0.1612 ( 20)  0.1293 ( 24) -0.1412 ( 25)  0.1548 ( 30) -0.1323 ( 31)
           0.1496 ( 34) -0.1417 ( 35) -0.1380 ( 39) -0.1319 ( 41) -0.1612 ( 43)
           0.1680 ( 45)  0.1571 ( 49)  0.1748 ( 52)  0.1530 ( 54)  0.1361 ( 55)
          -0.1472 ( 57) -0.1787 ( 58) -0.1134 ( 61) -0.1114 ( 62)  0.1774 ( 68)
           0.1582 ( 71) -0.1155 ( 76) -0.1094 ( 77) -0.1046 ( 79)  0.1265 (100)
           0.1318 (101)  0.1313 (107)  0.1130 (108)
 CRD  4=  -0.1988 (  3)  0.1169 (  6) -0.1635 (  7)  0.1604 ( 10)  0.1107 ( 15)
          -0.1856 ( 17) -0.2355 ( 20)  0.1558 ( 22) -0.3498 ( 26) -0.1102 ( 29)
           0.2507 ( 30)  0.2156 ( 31) -0.1039 ( 32)  0.1927 ( 33)  0.1243 ( 37)
          -0.2223 ( 38)  0.1427 ( 39) -0.1298 ( 42) -0.1228 ( 48)  0.1359 ( 51)
          -0.2084 ( 55) -0.1590 ( 56) -0.1040 ( 98) -0.1140 (101)
 CRD  5=   0.2087 (  3) -0.1627 (  7) -0.1180 (  8) -0.1308 ( 11)  0.1464 ( 13)
          -0.1042 ( 17)  0.1185 ( 25) -0.1274 ( 28)  0.1162 ( 29) -0.1034 ( 34)
          -0.1396 ( 41) -0.1085 ( 42)  0.1166 ( 47)  0.1211 ( 48)  0.2012 ( 49)
           0.1261 ( 63) -0.1767 ( 66) -0.1428 ( 67) -0.1525 ( 74) -0.1909 ( 75)
           0.1763 ( 78)  0.1315 ( 82)  0.1421 ( 83)  0.1120 ( 85) -0.1796 ( 89)
          -0.2136 ( 90) -0.2055 ( 92) -0.1670 ( 93)  0.1076 ( 97)  0.1068 ( 99)
           0.1767 (111)  0.1550 (115) -0.1054 (119) -0.1109 (120)
 CRD  6=  -0.3021 (  3) -0.1455 (  5) -0.3402 (  7) -0.1520 (  9) -0.2927 ( 10)
          -0.1209 ( 11) -0.1059 ( 12) -0.1328 ( 13) -0.2575 ( 15) -0.1133 ( 17)
          -0.2148 ( 39) -0.1614 ( 41)  0.1483 ( 42)  0.1607 ( 48) -0.1640 ( 49)
          -0.1405 ( 50)  0.1949 ( 55)  0.1097 ( 56) -0.1740 ( 64)  0.1721 ( 79)
          -0.1685 ( 81)  0.1777 ( 98)
 CRD  7=  -0.1002 (  3) -0.1107 ( 11)  0.1949 ( 17)  0.2065 ( 19)  0.4402 ( 20)
          -0.1398 ( 28) -0.1196 ( 29) -0.3714 ( 39)  0.1369 ( 41) -0.1214 ( 48)
           0.1113 ( 49) -0.1550 ( 50) -0.1787 ( 53)  0.3504 ( 55)  0.1208 ( 56)
           0.2583 ( 58)  0.1157 ( 64) -0.1045 ( 79)  0.1057 ( 81) -0.1105 ( 98)
 CRD  8=   0.1341 ( 10)  0.2452 ( 11) -0.3124 ( 13) -0.2299 ( 15)  0.1361 ( 17)
          -0.1323 ( 18)  0.1908 ( 21)  0.1552 ( 22) -0.1420 ( 33)  0.3209 ( 37)
           0.1112 ( 39) -0.1759 ( 40) -0.1113 ( 42) -0.3472 ( 47) -0.2753 ( 50)
           0.1432 ( 51)  0.1319 ( 56)  0.1129 ( 68) -0.1176 ( 89) -0.1067 ( 90)
           0.1352 (102)
 CRD  9=   0.1436 (  3)  0.1783 (  7)  0.1139 (  8) -0.3046 ( 10)  0.1223 ( 13)
          -0.2956 ( 15) -0.2314 ( 17) -0.2127 ( 19)  0.1203 ( 24) -0.1081 ( 32)
           0.1384 ( 34)  0.1277 ( 42)  0.1063 ( 48) -0.1382 ( 52)  0.1219 ( 53)
           0.1282 ( 55)  0.1504 ( 61)  0.1308 ( 62) -0.1180 ( 63) -0.1823 ( 76)
          -0.1529 ( 77) -0.1037 ( 80)  0.1250 ( 85)  0.1302 ( 93) -0.1534 ( 95)
           0.1446 (102) -0.1829 (105) -0.1321 (114)  0.1244 (116)
 CRD 10=  -0.1097 (  7)  0.3372 ( 17)  0.1258 ( 18) -0.1820 ( 20) -0.1001 ( 22)
          -0.1274 ( 28) -0.2470 ( 50) -0.1227 ( 51)  0.4048 ( 52) -0.1701 ( 55)
           0.3697 ( 56) -0.4033 ( 58)  0.1064 ( 62)
 CRD 11=   0.1755 (  6)  0.4789 (  7)  0.1733 ( 11)  0.1122 ( 19) -0.2300 ( 22)
          -0.1386 ( 26)  0.2170 ( 29)  0.3640 ( 33)  0.1143 ( 37) -0.1644 ( 39)
          -0.1814 ( 41) -0.1635 ( 50)  0.1145 ( 52) -0.1264 ( 53)  0.1346 ( 63)
           0.1355 ( 86)  0.1775 (107) -0.1028 (116)
 CRD 12=   0.2318 (  3)  0.1156 (  4)  0.1812 ( 10)  0.2308 ( 11)  0.1192 ( 12)
           0.2908 ( 13)  0.3074 ( 14)  0.1139 ( 15)  0.1673 ( 17)  0.1910 ( 19)
           0.1050 ( 20)  0.1987 ( 22)  0.1668 ( 28) -0.1138 ( 31) -0.1529 ( 32)
          -0.2197 ( 33) -0.1672 ( 38)  0.2074 ( 42)  0.1079 ( 47)  0.2121 ( 48)
          -0.1086 ( 49) -0.1458 ( 50) -0.1218 ( 53) -0.1356 ( 64)  0.1264 ( 79)
           0.1411 ( 98)  0.1005 (116)
 CRD 13=   0.4064 (  3)  0.2019 (  6) -0.1006 (  8) -0.2310 ( 11) -0.1432 ( 14)
          -0.1698 ( 15) -0.1011 ( 16) -0.1133 ( 21)  0.3112 ( 22) -0.1499 ( 26)
           0.1514 ( 28) -0.1752 ( 33) -0.1507 ( 37) -0.1656 ( 42)  0.1181 ( 47)
          -0.1531 ( 48) -0.1493 ( 49) -0.1795 ( 50)  0.1074 ( 52)  0.1286 ( 56)
          -0.1907 ( 78)  0.1025 ( 81) -0.1276 ( 88) -0.1357 (100) -0.1112 (111)
           0.1271 (114)
 CRD 14=  -0.2925 ( 11) -0.1268 ( 12) -0.2933 ( 13)  0.1029 ( 15) -0.1664 ( 16)
          -0.1227 ( 17) -0.2158 ( 18)  0.2117 ( 19) -0.1445 ( 20) -0.2139 ( 21)
           0.1333 ( 24) -0.1254 ( 30) -0.1218 ( 31)  0.1282 ( 35)  0.1531 ( 40)
           0.1098 ( 42) -0.1525 ( 44) -0.1619 ( 46)  0.1295 ( 48)  0.1601 ( 51)
           0.1407 ( 52) -0.2971 ( 53) -0.1218 ( 55) -0.1096 ( 56)  0.1567 ( 58)
 CRD 15=   0.1524 (  3)  0.1158 (  4) -0.1194 (  7)  0.1341 (  9) -0.1341 ( 10)
           0.1750 ( 11) -0.1980 ( 12) -0.2126 ( 13)  0.1476 ( 15)  0.1504 ( 16)
          -0.1051 ( 20)  0.1847 ( 27) -0.1995 ( 32) -0.1091 ( 39)  0.1432 ( 42)
          -0.1827 ( 48)  0.1162 ( 50)  0.1484 ( 54)  0.1424 ( 55) -0.1712 ( 56)
          -0.1556 ( 57)  0.1071 ( 64)  0.1916 ( 65) -0.1342 ( 69) -0.1010 ( 70)
          -0.1522 ( 72) -0.1324 ( 73)  0.1072 ( 76)  0.2157 ( 80)  0.1036 ( 81)
           0.1229 (101)  0.1239 (108)  0.2130 (114)  0.1881 (116)  0.1111 (119)
 CRD 16=  -0.1132 (  8)  0.3272 ( 12) -0.2877 ( 16)  0.1320 ( 18) -0.2341 ( 21)
           0.1434 ( 27) -0.1534 ( 32)  0.2284 ( 37)  0.1707 ( 40) -0.1312 ( 41)
           0.1032 ( 43)  0.1780 ( 44) -0.1560 ( 45) -0.1027 ( 46) -0.2603 ( 47)
           0.1390 ( 49) -0.1067 ( 51)  0.1278 ( 66)  0.1070 ( 67) -0.1401 ( 68)
          -0.1047 ( 71)  0.1474 ( 75)  0.1445 ( 86)  0.1656 ( 87)  0.1426 ( 91)
           0.1429 (104)  0.1157 (105)
 CRD 17=   0.1060 (  3)  0.1754 (  4) -0.1286 (  5)  0.3413 (  6)  0.1173 (  8)
          -0.1224 (  9) -0.1298 ( 13) -0.1690 ( 16)  0.3016 ( 18) -0.1642 ( 19)
           0.2260 ( 21) -0.1530 ( 26) -0.1151 ( 40) -0.1027 ( 41)  0.1069 ( 43)
          -0.1271 ( 46)  0.1159 ( 48)  0.1008 ( 50) -0.1444 ( 51)  0.1205 ( 53)
           0.1101 ( 65)  0.1169 ( 68) -0.1719 ( 69) -0.1717 ( 71)  0.1174 ( 72)
          -0.1278 ( 80) -0.1088 ( 83)  0.1010 ( 96) -0.1147 ( 99)  0.1061 (106)
 CRD 18=   0.1455 (  9)  0.1293 ( 12)  0.1056 ( 15) -0.1226 ( 16)  0.1450 ( 18)
          -0.1375 ( 25)  0.1373 ( 28) -0.1218 ( 29)  0.1015 ( 34)  0.2192 ( 41)
          -0.1566 ( 42)  0.1501 ( 48) -0.2131 ( 49) -0.1987 ( 63) -0.1154 ( 65)
          -0.2223 ( 78) -0.1350 ( 80)  0.1101 ( 83)  0.1447 ( 84) -0.1221 ( 90)
          -0.1368 ( 92) -0.1110 ( 93) -0.1434 (103) -0.1624 (104) -0.1366 (110)
          -0.2094 (111) -0.1220 (114) -0.2135 (115) -0.1303 (116) -0.1078 (118)
           0.1171 (119)  0.1497 (120) -0.1201 (121)
 CRD 19=   0.1251 (  5) -0.1507 (  6) -0.3855 ( 12)  0.3437 ( 14) -0.4497 ( 16)
           0.1683 ( 18) -0.1426 ( 19)  0.1548 ( 21) -0.1545 ( 38)  0.1209 ( 66)
           0.1206 ( 70)  0.1267 ( 91) -0.1280 ( 96) -0.1160 ( 97) -0.1018 (106)
 CRD 20=  -0.1625 (  4)  0.2933 (  8) -0.1547 (  9)  0.2774 ( 12) -0.1825 ( 16)
          -0.1312 ( 25)  0.1154 ( 34) -0.1158 ( 36)  0.2325 ( 42) -0.1048 ( 44)
          -0.2030 ( 48)  0.2071 ( 65)  0.1181 ( 72) -0.1204 ( 75)  0.1765 ( 80)
           0.1163 ( 82)  0.1266 ( 83)  0.1181 ( 84) -0.1160 ( 90) -0.1460 ( 92)
          -0.1165 ( 93) -0.1767 (103) -0.2204 (104) -0.1909 (110)  0.1913 (114)
           0.1924 (116) -0.1493 (121)
 CRD 21=   0.3428 (  4) -0.2275 (  5)  0.3054 (  6)  0.1812 (  8) -0.2015 (  9)
           0.1261 ( 16)  0.1484 ( 27) -0.1089 ( 28)  0.1382 ( 32) -0.1091 ( 34)
           0.1301 ( 62) -0.1048 ( 69) -0.1247 ( 77)  0.1279 ( 83)  0.1841 ( 84)
           0.1185 ( 85)  0.1099 ( 91) -0.2139 ( 94) -0.1502 ( 95) -0.1720 ( 96)
          -0.1395 ( 97)  0.1344 ( 99)  0.1064 (100)  0.1318 (101) -0.1588 (106)
           0.1038 (109) -0.1474 (119)  0.1150 (120) -0.1262 (122)
 CRD 22=   0.2056 (  4)  0.2901 (  6)  0.1534 (  8)  0.2695 ( 14) -0.1222 ( 16)
          -0.1398 ( 28) -0.1478 ( 29)  0.2170 ( 41)  0.2015 ( 49) -0.1242 ( 62)
          -0.2629 ( 63) -0.1039 ( 64) -0.1592 ( 65)  0.1245 ( 77)  0.2343 ( 78)
           0.1854 ( 80) -0.1050 ( 85)  0.1482 ( 94)  0.1275 ( 95)  0.1523 (111)
           0.1158 (112)  0.1044 (113)  0.1034 (114) -0.1854 (115)  0.1069 (119)
 CRD 23=  -0.4808 (  4) -0.7096 (  5)  0.1454 ( 14)  0.1571 ( 27) -0.2135 ( 59)
          -0.1105 ( 80)  0.1878 ( 91)  0.1857 (101)  0.1964 (113)
 CRD 24=  -0.2537 (  4)  0.1158 (  5) -0.6073 (  9) -0.1128 ( 10)  0.1286 ( 11)
           0.1090 ( 14)  0.1141 ( 18) -0.2166 ( 21) -0.1051 ( 29)  0.1518 ( 32)
           0.1352 ( 65) -0.1421 ( 86) -0.2340 ( 87) -0.1207 ( 88) -0.1143 (100)
          -0.1364 (107) -0.2283 (108) -0.1232 (112)  0.1262 (116) -0.2410 (117)
          -0.1491 (118)
 CRD 25=   0.2046 (  4) -0.6628 (  8) -0.4002 (  9) -0.1066 ( 18)  0.1270 ( 29)
          -0.2181 ( 60) -0.1182 ( 63)  0.1744 ( 86)  0.1045 ( 88)  0.1031 (100)
           0.1750 (107)  0.1161 (112) -0.1272 (115)  0.1772 (118)
 CRD 26=  -0.2864 (  4)  0.2363 (  6) -0.1524 (  8) -0.3337 ( 14)  0.1512 ( 18)
           0.1244 ( 21)  0.1277 ( 41)  0.1336 ( 49) -0.1107 ( 59) -0.1017 ( 60)
          -0.2608 ( 63) -0.1323 ( 64) -0.1447 ( 65)  0.2916 ( 78)  0.1305 ( 79)
           0.1649 ( 80)  0.1129 ( 86) -0.1698 ( 88) -0.1778 (100)  0.1183 (107)
           0.2037 (111) -0.1923 (112) -0.1748 (115)  0.1200 (118)
 CRD 27=  -0.1957 ( 12) -0.1815 ( 25) -0.1141 ( 34) -0.1194 ( 66) -0.2564 ( 82)
          -0.1484 ( 83)  0.2266 ( 84)  0.1315 ( 85) -0.1333 ( 89) -0.1774 ( 90)
           0.1078 ( 92) -0.1799 ( 94) -0.1101 ( 95)  0.1888 ( 96)  0.3034 ( 97)
          -0.1179 ( 99) -0.2847 (103)  0.1778 (104)  0.1430 (106) -0.2259 (109)
           0.1449 (110) -0.1392 (119)  0.1908 (120) -0.2406 (121)  0.2577 (122)
 CRD 28=  -0.1773 ( 10) -0.3372 ( 12)  0.1943 ( 16)  0.1012 ( 17)  0.4007 ( 18)
           0.2971 ( 19) -0.2589 ( 21)  0.1310 ( 34)  0.2636 ( 39) -0.1051 ( 47)
          -0.2876 ( 52) -0.2565 ( 55)  0.2782 ( 58)  0.1042 ( 94)
 CRD 29=  -0.1694 ( 10)  0.1191 ( 11) -0.1513 ( 14) -0.2010 ( 15) -0.3854 ( 16)
           0.5879 ( 19)  0.1055 ( 20)  0.2628 ( 21)  0.2655 ( 50)  0.1066 ( 52)
          -0.2497 ( 56) -0.1361 ( 58)
 CRD 30=   0.2375 ( 12)  0.1444 ( 14) -0.1178 ( 42) -0.1144 ( 48)  0.1245 ( 61)
          -0.1892 ( 65) -0.2323 ( 67)  0.2274 ( 74) -0.1215 ( 76)  0.1967 ( 80)
           0.2194 ( 82) -0.2419 ( 89)  0.2556 ( 93) -0.2301 ( 97) -0.2470 ( 99)
           0.1696 (102) -0.1674 (105)  0.2393 (106)  0.1537 (110)  0.2065 (114)
          -0.1929 (116) -0.1347 (121)
 CRD 31=   0.1032 (  4) -0.1549 (  5)  0.1133 (  7)  0.1068 (  9)  0.2273 ( 11)
           0.2830 ( 12) -0.2267 ( 13) -0.2816 ( 16)  0.2405 ( 17)  0.2616 ( 18)
          -0.2650 ( 20) -0.2729 ( 21)  0.1311 ( 22) -0.1216 ( 33) -0.2066 ( 37)
           0.2202 ( 47) -0.1659 ( 52)  0.1682 ( 58) -0.1077 (102)  0.1114 (107)
 CRD 32=   0.2439 (  4) -0.1895 (  5) -0.4743 (  6)  0.2289 (  8) -0.1832 (  9)
           0.1544 ( 10) -0.3715 ( 14)  0.1560 ( 15) -0.1118 ( 17)  0.1895 ( 18)
          -0.1649 ( 19)  0.2182 ( 21)  0.1027 ( 37) -0.1085 ( 54)  0.1013 ( 94)
           0.1361 (113) -0.1294 (117)
 CRD 33=  -0.3046 (  3) -0.1904 (  5)  0.3092 (  7)  0.1304 (  9) -0.1421 ( 10)
           0.1074 ( 15) -0.1466 ( 17) -0.1631 ( 18)  0.1949 ( 20)  0.1226 ( 21)
           0.3357 ( 22) -0.1045 ( 28)  0.1184 ( 29) -0.3492 ( 33) -0.1088 ( 55)
           0.1050 ( 56)  0.1663 ( 59) -0.1335 ( 60) -0.1003 ( 87) -0.1259 ( 91)
          -0.1560 (101) -0.1297 (108) -0.1847 (113)  0.1003 (114)  0.1031 (115)
           0.1300 (116) -0.1427 (117)
 CRD 34=   0.1476 (  3) -0.1295 (  7) -0.2204 ( 10)  0.1420 ( 11) -0.1130 ( 13)
           0.2542 ( 15) -0.1114 ( 16) -0.2256 ( 18) -0.1152 ( 19)  0.1329 ( 20)
           0.1908 ( 21)  0.1086 ( 33) -0.2101 ( 37)  0.1951 ( 39)  0.1229 ( 44)
          -0.1280 ( 46)  0.2086 ( 47) -0.2141 ( 50) -0.1823 ( 52)  0.1286 ( 54)
          -0.2757 ( 55)  0.2781 ( 56) -0.1391 ( 57)  0.2061 ( 58) -0.1102 (112)
 CRD 35=   0.1908 ( 10)  0.1714 ( 11) -0.2850 ( 12)  0.2017 ( 13) -0.2639 ( 14)
           0.1348 ( 15) -0.2771 ( 16)  0.2344 ( 17) -0.3434 ( 18) -0.2541 ( 19)
           0.2344 ( 20) -0.4131 ( 21)  0.1316 ( 82) -0.1272 ( 97)
 CRD 36=   0.1225 (  3)  0.1482 (  4) -0.4525 (  6)  0.3301 ( 14) -0.1221 ( 15)
          -0.1421 ( 18)  0.1105 ( 19) -0.1758 ( 21) -0.1414 ( 26)  0.1052 ( 53)
          -0.1551 ( 69)  0.1619 ( 72)  0.1296 ( 86) -0.1431 ( 88) -0.1366 (100)
           0.1198 (107)  0.1156 (111) -0.2085 (112) -0.1259 (113)  0.1187 (117)
           0.1985 (118)
 CRD 37=  -0.1044 (  5)  0.1669 (  8) -0.1517 (  9)  0.1442 ( 14)  0.1150 ( 18)
          -0.1277 ( 20) -0.1172 ( 25) -0.1108 ( 32) -0.1571 ( 34)  0.1457 ( 41)
           0.1005 ( 44) -0.1329 ( 63)  0.2232 ( 81)  0.1984 ( 82)  0.1323 ( 87)
          -0.2059 ( 97) -0.2368 ( 98)  0.1121 (109)  0.1804 (110) -0.1380 (111)
          -0.2846 (114)  0.2457 (116)  0.1049 (117) -0.1625 (121)
 CRD 38=   0.1263 (  3) -0.1565 (  7) -0.1053 ( 17) -0.1146 ( 21) -0.1686 ( 25)
          -0.1275 ( 28)  0.1332 ( 29)  0.1416 ( 34) -0.1201 ( 41) -0.1439 ( 42)
          -0.1060 ( 44)  0.1472 ( 48)  0.1386 ( 49)  0.1350 ( 63) -0.1196 ( 65)
           0.1005 ( 74)  0.1551 ( 78) -0.1278 ( 80)  0.2304 ( 84)  0.1463 ( 89)
           0.1675 ( 93)  0.2039 ( 94) -0.1319 ( 99) -0.2057 (103) -0.1948 (104)
          -0.1520 (106) -0.1480 (109)  0.1114 (111) -0.1714 (114)  0.1842 (115)
           0.2250 (119)  0.2158 (120) -0.1121 (121) -0.1345 (122)
 CRD 39=  -0.1068 (  7)  0.1024 (  8)  0.1016 ( 10) -0.2555 ( 11)  0.2707 ( 13)
          -0.1700 ( 15)  0.4400 ( 17) -0.1871 ( 18) -0.3764 ( 20)  0.1751 ( 21)
           0.1202 ( 37)  0.1044 ( 40) -0.1308 ( 47)  0.1093 ( 50) -0.2284 ( 52)
           0.2395 ( 58) -0.1062 ( 69) -0.1084 ( 72) -0.1193 (113) -0.1214 (117)
           0.1280 (119)  0.1030 (120)
 CRD 40=   0.1222 ( 10)  0.1621 ( 13) -0.2181 ( 14)  0.1637 ( 15) -0.2633 ( 17)
          -0.1194 ( 18)  0.4002 ( 19) -0.2789 ( 20) -0.1286 ( 38) -0.1322 ( 40)
          -0.1448 ( 50) -0.1609 ( 51) -0.2054 ( 52)  0.3125 ( 53)  0.2142 ( 55)
           0.3054 ( 56) -0.1068 ( 58)
 CRD 41=  -0.1678 (  4)  0.2207 (  8) -0.1514 (  9)  0.3151 ( 10) -0.1761 ( 12)
          -0.1716 ( 15) -0.1379 ( 17)  0.1240 ( 18) -0.1296 ( 21)  0.1669 ( 29)
          -0.1657 ( 37)  0.1710 ( 44) -0.1613 ( 46)  0.1503 ( 47)  0.1054 ( 54)
           0.1095 ( 55) -0.1154 ( 57) -0.1245 ( 58) -0.1292 ( 69) -0.1852 ( 72)
          -0.1357 ( 78)  0.2104 ( 86)  0.1184 ( 87)  0.1528 ( 88) -0.1446 ( 93)
           0.1032 ( 94)  0.1271 ( 99)  0.1212 (100)  0.1071 (103)  0.1071 (107)
          -0.1089 (111)  0.1142 (122)
 CRD 42=   0.1403 (  5) -0.1115 (  6)  0.1319 (  9) -0.2171 ( 15)  0.1093 ( 16)
          -0.1312 ( 19)  0.1865 ( 20) -0.1255 ( 23) -0.1358 ( 26)  0.1077 ( 27)
          -0.1111 ( 36) -0.1198 ( 38)  0.1109 ( 39)  0.1053 ( 52) -0.1037 ( 53)
          -0.1260 ( 56) -0.1400 ( 60) -0.1597 ( 61)  0.1233 ( 65)  0.1215 ( 76)
          -0.1070 ( 80)  0.1529 ( 82) -0.1200 ( 87) -0.1513 ( 89)  0.1163 ( 91)
          -0.1817 ( 97) -0.2179 (102)  0.1515 (104)  0.1844 (105)  0.1387 (106)
           0.1081 (107)  0.1529 (109)  0.1471 (110) -0.1311 (115) -0.1346 (117)
           0.1196 (119) -0.1403 (120) -0.1905 (121)
 CRD 43=   0.2751 (  3) -0.1709 (  5)  0.1443 (  7) -0.1590 (  8)  0.1680 ( 11)
          -0.1196 ( 12)  0.1329 ( 13) -0.1258 ( 15) -0.1121 ( 16)  0.1537 ( 18)
           0.1353 ( 21) -0.1328 ( 27) -0.1051 ( 28) -0.1154 ( 29)  0.1183 ( 40)
           0.1495 ( 51) -0.1030 ( 53)  0.1608 ( 54)  0.1159 ( 57)  0.2254 ( 59)
           0.1849 ( 60)  0.1037 ( 63) -0.1328 ( 81) -0.1011 ( 86)  0.1000 ( 88)
          -0.1356 ( 91)  0.1014 ( 98)  0.1825 (100) -0.1343 (102) -0.1983 (107)
          -0.1227 (110)  0.1022 (111) -0.1976 (113)  0.1592 (114) -0.1542 (116)
           0.1362 (117)
 CRD 44=  -0.2270 (  3)  0.1710 (  5)  0.2734 (  7) -0.2006 (  9)  0.1487 ( 11)
          -0.1330 ( 12)  0.1265 ( 17) -0.1441 ( 20)  0.1449 ( 22)  0.1521 ( 27)
          -0.1511 ( 32) -0.1510 ( 33)  0.1104 ( 57) -0.1031 ( 59)  0.1369 ( 60)
          -0.1470 ( 68) -0.1124 ( 71)  0.1435 ( 74)  0.1003 ( 85)  0.1640 ( 87)
          -0.1566 ( 90)  0.1243 ( 91) -0.1376 ( 92)  0.1041 ( 98) -0.1475 ( 99)
           0.1407 (105) -0.1370 (106) -0.1151 (107) -0.1465 (109)  0.1300 (110)
          -0.1142 (116)  0.1399 (117)  0.1097 (121) -0.1384 (122)
 CRD 45=  -0.2385 (  3)  0.1813 (  4)  0.1760 ( 11) -0.1287 ( 12) -0.1011 ( 13)
          -0.1201 ( 20)  0.1068 ( 21)  0.1301 ( 28)  0.1268 ( 34) -0.1137 ( 39)
          -0.1362 ( 45) -0.2253 ( 59)  0.1048 ( 63) -0.1386 ( 67) -0.1155 ( 68)
           0.1967 ( 75) -0.1068 ( 77)  0.1062 ( 78) -0.1362 ( 83) -0.1812 ( 88)
           0.1315 ( 92) -0.1281 ( 93) -0.1025 ( 97)  0.1182 ( 99) -0.1371 (100)
          -0.1323 (102)  0.1728 (106) -0.1355 (108)  0.2147 (109) -0.2637 (110)
           0.1020 (111) -0.1100 (112)  0.1238 (113)  0.1105 (115) -0.1871 (121)
 CRD 46=  -0.1326 (  6)  0.2226 (  7) -0.1954 (  8) -0.1092 ( 13) -0.1114 ( 14)
           0.1880 ( 16)  0.1207 ( 17)  0.1256 ( 22) -0.1327 ( 26) -0.1176 ( 28)
          -0.1707 ( 29)  0.1788 ( 43)  0.1468 ( 47)  0.1339 ( 50) -0.1003 ( 51)
           0.1305 ( 60) -0.1682 ( 62) -0.1149 ( 64)  0.1088 ( 66)  0.1079 ( 68)
          -0.1559 ( 71) -0.1171 ( 74)  0.1349 ( 77)  0.1042 ( 78) -0.1428 ( 86)
           0.1344 ( 88)  0.1419 ( 91)  0.1172 ( 94)  0.1056 ( 99)  0.1394 (102)
          -0.1780 (105) -0.1242 (107) -0.1229 (110)  0.1184 (115) -0.1510 (118)
          -0.1027 (119)  0.1875 (120) -0.1274 (121)  0.1230 (122)
 CRD 47=   0.1548 (  3) -0.1059 (  4) -0.1322 (  9) -0.3104 ( 13)  0.2166 ( 15)
          -0.1540 ( 18) -0.1557 ( 23)  0.1556 ( 24) -0.1120 ( 31) -0.1004 ( 32)
           0.1881 ( 46) -0.1547 ( 51) -0.2301 ( 54)  0.1722 ( 59)  0.1336 ( 66)
           0.1644 ( 69) -0.1393 ( 71) -0.1019 ( 78) -0.1302 ( 91) -0.2095 (101)
           0.1336 (109)  0.2904 (112) -0.1134 (115) -0.1196 (116) -0.1556 (121)
 CRD 48=   0.2007 (  4) -0.1479 (  5) -0.1623 (  8)  0.2671 ( 10) -0.2256 ( 11)
          -0.1110 ( 22) -0.1216 ( 27)  0.1324 ( 28)  0.1372 ( 35) -0.1637 ( 36)
           0.1807 ( 44) -0.1841 ( 57)  0.1398 ( 60)  0.1415 ( 63)  0.1066 ( 69)
           0.1228 ( 70) -0.1805 ( 72)  0.1037 ( 73) -0.1398 ( 77) -0.1217 ( 79)
           0.1333 ( 87) -0.1294 (100)  0.1207 (108)  0.1388 (111) -0.1022 (112)
          -0.1509 (117) -0.3301 (118)  0.1574 (119)
 CRD 49=   0.1544 (  3) -0.1883 (  7)  0.2401 (  9)  0.1162 ( 10)  0.1343 ( 11)
          -0.2385 ( 12) -0.1750 ( 13) -0.1076 ( 20)  0.1110 ( 30)  0.1411 ( 32)
           0.1167 ( 33)  0.1021 ( 34) -0.1050 ( 35) -0.1264 ( 37) -0.1128 ( 39)
           0.1022 ( 40)  0.1052 ( 44) -0.1459 ( 45) -0.1739 ( 60) -0.1108 ( 64)
           0.1298 ( 65)  0.2138 ( 73)  0.2046 ( 74) -0.1636 ( 76) -0.1361 ( 81)
           0.1634 ( 86) -0.1565 ( 92)  0.1075 ( 95) -0.2784 (108)  0.1044 (116)
          -0.1622 (117)
 CRD 50=  -0.1353 (  4)  0.1854 (  5)  0.1184 (  7)  0.1259 ( 10) -0.1885 ( 11)
           0.1327 ( 14)  0.1799 ( 15) -0.2194 ( 16)  0.1207 ( 22) -0.1512 ( 26)
           0.1245 ( 27) -0.1351 ( 28)  0.2018 ( 38) -0.1534 ( 43)  0.1296 ( 44)
           0.1843 ( 46) -0.1520 ( 47)  0.1092 ( 48)  0.2012 ( 61)  0.1049 ( 62)
          -0.2708 ( 70)  0.1175 ( 73)  0.1243 ( 79) -0.1048 ( 80) -0.1139 ( 81)
          -0.1112 ( 88)  0.1226 ( 89)  0.1211 ( 90)  0.2149 ( 98)  0.1265 (100)
           0.1529 (101)  0.1074 (113) -0.1174 (118)  0.1139 (120)
 CRD 51=   0.2241 ( 23) -0.1303 ( 24)  0.1623 ( 36) -0.1007 ( 62) -0.2308 ( 66)
          -0.1238 ( 74)  0.1107 ( 77) -0.2893 ( 83)  0.1032 ( 89) -0.2079 ( 90)
           0.1613 ( 92)  0.3138 ( 96)  0.1659 (102) -0.1144 (103) -0.1296 (105)
           0.2881 (109) -0.1206 (110)  0.1037 (111)  0.1967 (121) -0.4037 (122)
 CRD 52=  -0.2151 ( 15) -0.2744 ( 23) -0.2403 ( 36)  0.1618 ( 45)  0.1069 ( 47)
           0.2574 ( 61)  0.1267 ( 67) -0.1164 ( 73) -0.2797 ( 76) -0.2693 ( 85)
           0.1499 ( 89) -0.1294 ( 93)  0.2762 ( 95)  0.1364 ( 96) -0.1584 (103)
          -0.2642 (119)  0.2498 (120) -0.1319 (122)
 CRD 53=  -0.1138 ( 24) -0.1101 ( 27)  0.1223 ( 31) -0.1056 ( 32) -0.1447 ( 62)
           0.2249 ( 64)  0.2488 ( 65)  0.1107 ( 70)  0.1495 ( 77) -0.2244 ( 79)
          -0.2911 ( 80) -0.1548 ( 81)  0.1432 ( 83)  0.1506 ( 90) -0.1725 ( 96)
           0.1668 ( 98) -0.1038 (109)  0.3519 (111)  0.1000 (114) -0.2821 (115)
          -0.1309 (116) -0.1047 (119)  0.1432 (120) -0.1117 (121)  0.1545 (122)
 CRD 54=  -0.1904 ( 10)  0.1276 ( 15)  0.1615 ( 22) -0.1506 ( 23) -0.1351 ( 24)
           0.1553 ( 25) -0.1501 ( 30)  0.2341 ( 31)  0.1425 ( 32) -0.1161 ( 33)
           0.2627 ( 35) -0.2759 ( 36)  0.1031 ( 37) -0.1968 ( 39)  0.1578 ( 40)
           0.1252 ( 41)  0.1609 ( 43) -0.1254 ( 48) -0.1189 ( 49)  0.1526 ( 50)
          -0.1497 ( 51)  0.1491 ( 61)  0.1010 ( 62) -0.1240 ( 67)  0.1244 ( 68)
           0.1054 ( 69)  0.1663 ( 70)  0.1132 ( 71)  0.1607 ( 73) -0.1391 ( 74)
          -0.1308 ( 75)  0.1045 ( 86)  0.1045 ( 95)

 THE DETERMINANT OF THE G MATRIX IS 10**(   -20)


                     --------------------
                     INTERNAL COORDINATES
                     --------------------

                 - - ATOMS - -         COORDINATE      COORDINATE
 NO.   TYPE    I  J  K  L  M  N        (BOHR,RAD)       (ANG,DEG)
 ----------------------------------------------------------------
   1 STRETCH   1  6                     3.7843731       2.0026041
   2 STRETCH   3  4                     3.7545393       1.9868168
   3 STRETCH   1  2                     2.5652660       1.3574804
   4 STRETCH   1 12                     2.0704187       1.0956185
   5 STRETCH   1 11                     2.0652810       1.0928997
   6 STRETCH   2 13                     2.0542670       1.0870714
   7 STRETCH   2  3                     2.8604202       1.5136693
   8 STRETCH   3 14                     2.0887519       1.1053200
   9 STRETCH   3 15                     2.0405182       1.0797958
  10 STRETCH   4  9                     2.8693830       1.5184122
  11 STRETCH   4  5                     2.8413850       1.5035963
  12 STRETCH   4 16                     2.0638029       1.0921176
  13 STRETCH   5  6                     2.5722811       1.3611927
  14 STRETCH   5 17                     2.0514088       1.0855588
  15 STRETCH   6  7                     2.8018769       1.4826895
  16 STRETCH   6 18                     2.0710470       1.0959510
  17 STRETCH   7  8                     2.5340631       1.3409685
  18 STRETCH   7 19                     2.0538650       1.0868586
  19 STRETCH   8 20                     2.0435813       1.0814167
  20 STRETCH   8  9                     2.8075303       1.4856812
  21 STRETCH   9 10                     2.3231686       1.2293680
  22 BEND      1  2 13                  2.0902633     119.7632652
  23 BEND      1  6  7                  1.8439431     105.6501548
  24 BEND      1  6  5                  1.7960375     102.9053698
  25 BEND      1  6 18                  1.6711160      95.7478943
  26 BEND      1  2  3                  2.0966726     120.1304924
  27 BEND      2  1 12                  2.0219057     115.8466653
  28 BEND      2  1 11                  2.0599161     118.0244968
  29 BEND      2  3 15                  1.9690901     112.8205493
  30 BEND      2  3  4                  1.8444228     105.6776401
  31 BEND      2  1  6                  1.9062312     109.2190023
  32 BEND      2  3 14                  1.9853675     113.7531783
  33 BEND      3  2 13                  2.0410089     116.9411986
  34 BEND      3  4 16                  1.8450111     105.7113466
  35 BEND      3  4  5                  1.8061051     103.4822010
  36 BEND      3  4  9                  1.8260202     104.6232502
  37 BEND      4  5 17                  2.0694312     118.5696743
  38 BEND      4  5  6                  2.0250482     116.0267168
  39 BEND      4  9 10                  2.1397753     122.6000953
  40 BEND      4  9  8                  2.0563361     117.8193785
  41 BEND      4  3 15                  1.8233935     104.4727506
  42 BEND      4  3 14                  1.8567239     106.3824418
  43 BEND      5  6  7                  2.0055528     114.9097122
  44 BEND      5  4 16                  2.0097712     115.1514080
  45 BEND      5  4  9                  1.9826165     113.5955595
  46 BEND      5  6 18                  2.0644869     118.2863858
  47 BEND      6  5 17                  2.1032530     120.5075174
  48 BEND      6  1 12                  1.5359158      88.0014917
  49 BEND      6  1 11                  1.7958754     102.8960815
  50 BEND      6  7 19                  2.0342543     116.5541838
  51 BEND      6  7  8                  2.1471221     123.0210370
  52 BEND      7  8 20                  2.1558020     123.5183579
  53 BEND      7  8  9                  2.0750809     118.8933758
  54 BEND      7  6 18                  2.0132479     115.3506070
  55 BEND      8  9 10                  2.0863985     119.5418260
  56 BEND      8  7 19                  2.1017627     120.4221313
  57 BEND      9  4 16                  1.9696605     112.8532364
  58 BEND      9  8 20                  2.0522952     117.5878560
  59 BEND     11  1 12                  2.0391816     116.8365019
  60 BEND     14  3 15                  1.9684640     112.7846794
  61 TORSION   1  6  5 17               1.5131480      86.6969937
  62 TORSION   1  6  5  4              -1.1900512     -68.1849108
  63 TORSION   1  2  3 15              -2.8985656    -166.0755779
  64 TORSION   1  2  3  4              -0.9165576     -52.5148839
  65 TORSION   1  2  3 14               1.1138201      63.8171895
  66 TORSION   1  6  7  8               1.5166546      86.8979089
  67 TORSION   1  6  7 19              -1.6352466     -93.6927300
  68 TORSION   2  3  4  9               1.9338522     110.8015696
  69 TORSION   2  1  6 18               2.1615685     123.8487503
  70 TORSION   2  1  6  5               0.0536337       3.0729856
  71 TORSION   2  1  6  7              -2.0557582    -117.7862708
  72 TORSION   2  3  4 16              -2.2660487    -129.8350272
  73 TORSION   2  3  4  5              -0.1466902      -8.4047265
  74 TORSION   3  4  9 10               1.4179182      81.2407279
  75 TORSION   3  4  9  8              -1.6839595     -96.4837750
  76 TORSION   3  4  5 17              -1.4680838     -84.1150048
  77 TORSION   3  4  5  6               1.2439977      71.2758203
  78 TORSION   3  2  1 11               3.0322705     173.7363037
  79 TORSION   3  2  1  6               0.9910094      56.7806535
  80 TORSION   3  2  1 12              -0.7079753     -40.5639949
  81 TORSION   4  3  2 13               1.8734240     107.3392876
  82 TORSION   4  9  8 20              -3.0810764    -176.5326729
  83 TORSION   4  9  8  7               0.0644392       3.6920919
  84 TORSION   4  5  6 18              -3.0031956    -172.0704309
  85 TORSION   4  5  6  7               0.8048942      46.1170390
  86 TORSION   5  4  3 15               1.9344505     110.8358479
  87 TORSION   5  4  3 14              -2.2626721    -129.6415646
  88 TORSION   5  6  1 11              -2.1485597    -123.1034007
  89 TORSION   5  6  7 19               2.6810365     153.6120775
  90 TORSION   5  6  7  8              -0.4502475     -25.7972836
  91 TORSION   5  6  1 12               2.0909851     119.8046220
  92 TORSION   5  4  9  8               0.2732812      15.6578595
  93 TORSION   5  4  9 10              -2.9080264    -166.6176376
  94 TORSION   6  5  4 16              -3.0347235    -173.8768491
  95 TORSION   6  5  4  9              -0.7252857     -41.5558101
  96 TORSION   6  7  8  9               0.0023747       0.1360629
  97 TORSION   6  7  8 20              -3.1350476    -179.6249935
  98 TORSION   6  1  2 13              -1.7890702    -102.5061737
  99 TORSION   7  8  9 10              -3.0386966    -174.1044905
 100 TORSION   7  6  1 11               2.0252337     116.0373429
 101 TORSION   7  6  1 12              -0.0184068      -1.0546344
 102 TORSION   7  6  5 17              -2.7750919    -159.0010565
 103 TORSION   8  7  6 18              -2.9453064    -168.7536241
 104 TORSION   8  9  4 16               2.6019597     149.0813100
 105 TORSION   9  4  5 17               2.8458181     163.0533647
 106 TORSION   9  8  7 19              -3.1285244    -179.2512464
 107 TORSION   9  4  3 15              -2.2681925    -129.9578559
 108 TORSION   9  4  3 14              -0.1821298     -10.4352684
 109 TORSION  10  9  8 20               0.0989732       5.6707448
 110 TORSION  10  9  4 16              -0.5793479     -33.1941872
 111 TORSION  11  1  2 13               0.2521909      14.4494765
 112 TORSION  11  1  6 18              -0.0406249      -2.3276360
 113 TORSION  12  1  6 18              -2.0842654    -119.4196133
 114 TORSION  12  1  2 13               2.7951304     160.1491778
 115 TORSION  13  2  3 15              -0.1085840      -6.2214064
 116 TORSION  13  2  3 14              -2.3793836    -136.3286390
 117 TORSION  14  3  4 16               1.9011546     108.9281347
 118 TORSION  15  3  4 16              -0.1849081     -10.5944528
 119 TORSION  16  4  5 17               0.5363803      30.7323257
 120 TORSION  17  5  6 18              -0.2999964     -17.1885264
 121 TORSION  18  6  7 19               0.1859777      10.6557370
 122 TORSION  19  7  8 20               0.0172386       0.9876972

     ------------------------------------------
     THE POINT GROUP IS C1 , NAXIS= 0, ORDER= 1
     ------------------------------------------

     DIMENSIONS OF THE SYMMETRY SUBSPACES ARE
 A   =   60

 ..... DONE SETTING UP THE RUN .....
 STEP CPU TIME =     0.06 TOTAL CPU TIME =          0.1 (      0.0 MIN)
 TOTAL WALL CLOCK TIME=          0.1 SECONDS, CPU UTILIZATION IS    75.00%


          -----------------------------
          STATIONARY POINT LOCATION RUN
          -----------------------------


           ** GEOMETRY CONSTRAINTS ARE BEING APPLIED. **

          TRANSFORMING DISPLACEMENT FROM INTERNALS TO CARTESIANS
          THE ROOT MEAN SQUARE ERROR IN ITERATION   1 IS   0.00001873
          THE ROOT MEAN SQUARE ERROR IN ITERATION   2 IS   0.00000000
 WARNING! THE RADIUS IN CARTESIANS IS    0.04070
 OBTAINING INITIAL HESSIAN, HESS=CALC    

     ---------------------------------
     HESSIAN MATRIX CONTROL PARAMETERS
     ---------------------------------
     METHOD=ANALYTIC   NVIB  =       2   VIBSIZ= 0.01000
     RDHESS=       F   PURIFY=       F   PRTIFC=       F
     VIBANL=       F   DECOMP=       F   PROJCT=       F
     SCLFAC= 1.00000   PRTSCN=       F   NPRT  =       0
     PULCOR=       F   NPUN  =       0   REDOVB=       T
     HSSTYP=GENERAL 
 Old integral subroutine is used

     ------------------------------
     CPHF RESPONSE SOLUTION OPTIONS
     ------------------------------
     POLAR  =       F     NWORD  =       0
     CPHF   =AO      

          ********************
          1 ELECTRON INTEGRALS
          ********************
 ...... END OF ONE-ELECTRON INTEGRALS ......
 STEP CPU TIME =     0.03 TOTAL CPU TIME =          0.1 (      0.0 MIN)
 TOTAL WALL CLOCK TIME=          0.1 SECONDS, CPU UTILIZATION IS    69.23%

          -------------
          GUESS OPTIONS
          -------------
          GUESS =HUCKEL            NORB  =       0          NORDER=       0
          MIX   =       F          PRTMO =       F          PUNMO =       F
          TOLZ  = 1.0E-08          TOLE  = 1.0E-05
          SYMDEN=       F          PURIFY=       F

 INITIAL GUESS ORBITALS GENERATED BY HUCKEL   ROUTINE.
 HUCKEL GUESS REQUIRES     53820 WORDS.

 SYMMETRIES FOR INITIAL GUESS ORBITALS FOLLOW.   BOTH SET(S).
    36 ORBITALS ARE OCCUPIED (   10 CORE ORBITALS).
    11=A       12=A       13=A       14=A       15=A       16=A       17=A   
    18=A       19=A       20=A       21=A       22=A       23=A       24=A   
    25=A       26=A       27=A       28=A       29=A       30=A       31=A   
    32=A       33=A       34=A       35=A       36=A       37=A       38=A   
    39=A       40=A       41=A       42=A       43=A       44=A       45=A   
    46=A   
 ...... END OF INITIAL ORBITAL SELECTION ......
 STEP CPU TIME =     0.02 TOTAL CPU TIME =          0.1 (      0.0 MIN)
 TOTAL WALL CLOCK TIME=          0.2 SECONDS, CPU UTILIZATION IS    73.33%

                    ----------------------
                    AO INTEGRAL TECHNOLOGY
                    ----------------------
     S,P,L SHELL ROTATED AXIS INTEGRALS, REPROGRAMMED BY
        KAZUYA ISHIMURA (IMS) AND JOSE SIERRA (SYNSTAR).
     S,P,D,L SHELL ROTATED AXIS INTEGRALS PROGRAMMED BY
        KAZUYA ISHIMURA (INSTITUTE FOR MOLECULAR SCIENCE).
     S,P,D,F,G SHELL TO TOTAL QUARTET ANGULAR MOMENTUM SUM 5,
        ERIC PROGRAM BY GRAHAM FLETCHER (ELORET AND NASA ADVANCED
        SUPERCOMPUTING DIVISION, AMES RESEARCH CENTER).
     S,P,D,F,G,L SHELL GENERAL RYS QUADRATURE PROGRAMMED BY
        MICHEL DUPUIS (PACIFIC NORTHWEST NATIONAL LABORATORY).

          --------------------
          2 ELECTRON INTEGRALS
          --------------------

 THE -PK- OPTION IS OFF, THE INTEGRALS ARE NOT IN SUPERMATRIX FORM.
 STORING   15000 INTEGRALS/RECORD ON DISK, USING 12 BYTES/INTEGRAL.
 TWO ELECTRON INTEGRAL EVALUATION REQUIRES   89821 WORDS OF MEMORY.
 SCHWARZ INEQUALITY OVERHEAD:      1797 INTEGRALS, T=        0.01
 II,JST,KST,LST =  1  1  1  1 NREC =         1 INTLOC =    1
 II,JST,KST,LST =  2  1  1  1 NREC =         1 INTLOC =    2
 II,JST,KST,LST =  3  1  1  1 NREC =         1 INTLOC =   34
 II,JST,KST,LST =  4  1  1  1 NREC =         1 INTLOC =  144
 II,JST,KST,LST =  5  1  1  1 NREC =         1 INTLOC = 1366
 II,JST,KST,LST =  6  1  1  1 NREC =         1 INTLOC = 1953
 II,JST,KST,LST =  7  1  1  1 NREC =         1 INTLOC = 6853
 II,JST,KST,LST =  8  1  1  1 NREC =         1 INTLOC = 8469
 II,JST,KST,LST =  9  1  1  1 NREC =         2 INTLOC = 5862
 II,JST,KST,LST = 10  1  1  1 NREC =         2 INTLOC = 9596
 II,JST,KST,LST = 11  1  1  1 NREC =         4 INTLOC = 4909
 II,JST,KST,LST = 12  1  1  1 NREC =         4 INTLOC =12002
 II,JST,KST,LST = 13  1  1  1 NREC =         7 INTLOC =12021
 II,JST,KST,LST = 14  1  1  1 NREC =         8 INTLOC = 8100
 II,JST,KST,LST = 15  1  1  1 NREC =        13 INTLOC = 4801
 II,JST,KST,LST = 16  1  1  1 NREC =        14 INTLOC = 6602
 II,JST,KST,LST = 17  1  1  1 NREC =        21 INTLOC = 9215
 II,JST,KST,LST = 18  1  1  1 NREC =        23 INTLOC = 5191
 II,JST,KST,LST = 19  1  1  1 NREC =        33 INTLOC =12516
 II,JST,KST,LST = 20  1  1  1 NREC =        35 INTLOC = 7367
 II,JST,KST,LST = 21  1  1  1 NREC =        47 INTLOC = 9434
 II,JST,KST,LST = 22  1  1  1 NREC =        51 INTLOC = 5331
 II,JST,KST,LST = 23  1  1  1 NREC =        55 INTLOC =10358
 II,JST,KST,LST = 24  1  1  1 NREC =        59 INTLOC =12712
 II,JST,KST,LST = 25  1  1  1 NREC =        64 INTLOC =10655
 II,JST,KST,LST = 26  1  1  1 NREC =        69 INTLOC = 9957
 II,JST,KST,LST = 27  1  1  1 NREC =        75 INTLOC = 1393
 II,JST,KST,LST = 28  1  1  1 NREC =        80 INTLOC =11039
 II,JST,KST,LST = 29  1  1  1 NREC =        86 INTLOC = 8469
 II,JST,KST,LST = 30  1  1  1 NREC =        92 INTLOC = 9951
 SCHWARZ INEQUALITY TEST SKIPPED       25175 INTEGRAL BLOCKS.
 TOTAL NUMBER OF NONZERO TWO-ELECTRON INTEGRALS =             1471000
         99 INTEGRAL RECORDS WERE STORED ON DISK FILE  8.
  ...... END OF TWO-ELECTRON INTEGRALS .....
 STEP CPU TIME =     0.29 TOTAL CPU TIME =          0.4 (      0.0 MIN)
 TOTAL WALL CLOCK TIME=          0.4 SECONDS, CPU UTILIZATION IS    88.89%

          --------------------------
                 RHF SCF CALCULATION
          --------------------------

     NUCLEAR ENERGY =       505.0388786723
     MAXIT =   30     NPUNCH=    2
     EXTRAP=T  DAMP=F  SHIFT=F  RSTRCT=F  DIIS=F  DEM=F  SOSCF=T
     DENSITY MATRIX CONV=  1.00E-05
     SOSCF WILL OPTIMIZE     864 ORBITAL ROTATIONS, SOGTOL=   0.250
     MEMORY REQUIRED FOR RHF ITERS=     59496 WORDS.

 ITER EX DEM     TOTAL ENERGY        E CHANGE  DENSITY CHANGE     ORB. GRAD
   1  0  0     -415.4860926769  -415.4860926769   0.520842754   0.000000000
          ---------------START SECOND ORDER SCF---------------
   2  1  0     -415.9995112496    -0.5134185728   0.253024025   0.061613162
   3  2  0     -416.0321308309    -0.0326195812   0.115562516   0.049535300
   4  3  0     -416.0665293705    -0.0343985396   0.019685835   0.006267950
   5  4  0     -416.0674659402    -0.0009365697   0.006695848   0.003195373
   6  5  0     -416.0676072295    -0.0001412893   0.002460479   0.000846560
   7  6  0     -416.0676276317    -0.0000204022   0.001088842   0.000247219
   8  7  0     -416.0676297065    -0.0000020748   0.000327561   0.000106177
   9  8  0     -416.0676301472    -0.0000004408   0.000122607   0.000032610
  10  9  0     -416.0676302062    -0.0000000590   0.000069630   0.000016391
  11 10  0     -416.0676302156    -0.0000000094   0.000025567   0.000003441
  12 11  0     -416.0676302169    -0.0000000012   0.000009894   0.000002538
  13 12  0     -416.0676302171    -0.0000000002   0.000005539   0.000000898

          -----------------
          DENSITY CONVERGED
          -----------------
     TIME TO FORM FOCK OPERATORS=       0.3 SECONDS (       0.0 SEC/ITER)
     TIME TO SOLVE SCF EQUATIONS=       0.0 SECONDS (       0.0 SEC/ITER)

 FINAL RHF ENERGY IS     -416.0676302171 AFTER  13 ITERATIONS

          ------------
          EIGENVECTORS
          ------------

                      1          2          3          4          5
                  -20.2548   -11.1110   -11.0520   -11.0513   -11.0497
                     A          A          A          A          A   
    1  C  1  S    0.000000   0.000035  -0.019034  -0.001178  -0.002171
    2  C  1  S    0.000001   0.000025  -0.003421  -0.000209   0.000043
    3  C  1  X   -0.000000   0.000022  -0.001933  -0.000113   0.000015
    4  C  1  Y   -0.000002   0.000011  -0.000055  -0.000060   0.000016
    5  C  1  Z    0.000002  -0.000019  -0.001668  -0.000138  -0.000057
    6  C  2  S    0.000000   0.000017  -0.000376  -0.000043  -0.001602
    7  C  2  S    0.000000   0.000008   0.000279   0.001087  -0.005640
    8  C  2  X   -0.000005   0.000039   0.000235  -0.000025   0.000415
    9  C  2  Y   -0.000003   0.000011  -0.000048   0.000638  -0.003501
   10  C  2  Z    0.000004  -0.000020  -0.000026   0.000426  -0.002167
   11  C  3  S   -0.000006  -0.000313   0.004677  -0.164795   0.978563
   12  C  3  S    0.000022   0.000118   0.000298  -0.008289   0.033730
   13  C  3  X    0.000034  -0.000205   0.000054  -0.001665  -0.002026
   14  C  3  Y    0.000029  -0.000048   0.000018  -0.000019  -0.000146
   15  C  3  Z   -0.000009  -0.000007   0.000077  -0.001264  -0.001147
   16  C  4  S   -0.000023  -0.001875  -0.051358   0.976981   0.165627
   17  C  4  S    0.000263  -0.005566  -0.001770   0.034639   0.003297
   18  C  4  X   -0.000128  -0.002216  -0.000127   0.001328   0.002213
   19  C  4  Y    0.000388  -0.003129   0.000016   0.000055   0.000054
   20  C  4  Z    0.000190   0.001398   0.000200   0.000700   0.001567
   21  C  5  S    0.000005  -0.000304   0.008828  -0.001285  -0.000992
   22  C  5  S    0.000013   0.000083  -0.006997  -0.006236  -0.000967
   23  C  5  X   -0.000065  -0.000066  -0.002195   0.001517   0.000250
   24  C  5  Y   -0.000035  -0.000034   0.001061  -0.003780  -0.000578
   25  C  5  Z    0.000036   0.000009   0.004119  -0.000408  -0.000070
   26  C  6  S    0.000003  -0.000328   0.990122   0.051273   0.003859
   27  C  6  S    0.000016  -0.000062   0.036932   0.002075   0.000197
   28  C  6  X    0.000018   0.000010   0.000706   0.000106   0.000027
   29  C  6  Y   -0.000033  -0.000132   0.000612  -0.000005  -0.000031
   30  C  6  Z   -0.000005  -0.000022   0.001826   0.000109   0.000034
   31  C  7  S    0.000007  -0.000413  -0.025558  -0.009023  -0.001691
   32  C  7  S    0.000016   0.000122  -0.007248  -0.000725  -0.000086
   33  C  7  X    0.000066  -0.000007   0.002589   0.000260   0.000023
   34  C  7  Y    0.000029  -0.000015   0.003214   0.000097  -0.000001
   35  C  7  Z   -0.000048   0.000003  -0.001614  -0.000170  -0.000021
   36  C  8  S   -0.000026  -0.000818  -0.001002  -0.000968  -0.000063
   37  C  8  S    0.000374  -0.006035   0.000365   0.000197   0.000054
   38  C  8  X   -0.000027   0.003065  -0.000053   0.000004  -0.000022
   39  C  8  Y    0.000480  -0.001177  -0.000186  -0.000089  -0.000006
   40  C  8  Z    0.000073  -0.002690   0.000058   0.000011  -0.000003
   41  C  9  S    0.000557   0.992508   0.000210   0.002774   0.000819
   42  C  9  S   -0.007141   0.033181   0.000260  -0.005796  -0.000912
   43  C  9  X    0.001040   0.000111  -0.000164   0.002316   0.000352
   44  C  9  Y   -0.006071   0.000473  -0.000029   0.003099   0.000471
   45  C  9  Z   -0.001373  -0.000272   0.000184  -0.001690  -0.000255
   46  O 10  S    0.994275   0.000182   0.000006  -0.000018  -0.000012
   47  O 10  S    0.025896  -0.005837  -0.000066   0.000237   0.000084
   48  O 10  X    0.000929  -0.000306  -0.000001  -0.000083  -0.000031
   49  O 10  Y   -0.005312   0.001733   0.000044  -0.000171  -0.000057
   50  O 10  Z   -0.001227   0.000425  -0.000007   0.000086   0.000005
   51  H 11  S   -0.000001  -0.000005   0.000327   0.000006  -0.000058
   52  H 12  S    0.000003  -0.000068   0.000117   0.000017  -0.000113
   53  H 13  S   -0.000002   0.000005  -0.000001  -0.000024   0.000104
   54  H 14  S    0.000011  -0.000460  -0.000035   0.001196  -0.006611
   55  H 15  S    0.000003  -0.000061  -0.000050   0.001253  -0.006867
   56  H 16  S   -0.000138  -0.000052   0.000228  -0.006805  -0.001051
   57  H 17  S   -0.000024  -0.000066   0.000073   0.000081   0.000011
   58  H 18  S   -0.000017  -0.000039  -0.006813  -0.000443  -0.000051
   59  H 19  S   -0.000024  -0.000062   0.000270   0.000017   0.000004
   60  H 20  S   -0.000214   0.000022  -0.000030  -0.000052  -0.000010

                      6          7          8          9         10
                  -11.0483   -11.0367   -11.0257   -11.0199   -11.0046
                     A          A          A          A          A   
    1  C  1  S   -0.000115   0.991918  -0.000639   0.002245  -0.008231
    2  C  1  S    0.000349   0.036416   0.000066   0.000192  -0.007903
    3  C  1  X   -0.000054  -0.001745   0.000039  -0.000001   0.003913
    4  C  1  Y    0.000148   0.000585   0.000047  -0.000016  -0.000883
    5  C  1  Z   -0.000202  -0.000137  -0.000050  -0.000186  -0.002469
    6  C  2  S    0.000028   0.008905   0.000041  -0.007322   0.992151
    7  C  2  S   -0.000019  -0.007292   0.000015  -0.000718   0.035883
    8  C  2  X    0.000002  -0.003843   0.000007  -0.000454   0.002027
    9  C  2  Y    0.000028   0.000974  -0.000008   0.000076  -0.000783
   10  C  2  Z    0.000019   0.002423   0.000002  -0.000468   0.000416
   11  C  3  S    0.000283   0.002107  -0.000112   0.000745   0.002507
   12  C  3  S   -0.000007   0.000166   0.000016   0.000152  -0.005605
   13  C  3  X   -0.000004  -0.000133   0.000008  -0.000072  -0.000409
   14  C  3  Y    0.000002  -0.000026   0.000012   0.000087   0.003615
   15  C  3  Z   -0.000020   0.000046  -0.000006  -0.000066   0.002144
   16  C  4  S    0.007895   0.000545   0.000796   0.002840   0.000321
   17  C  4  S    0.000274   0.000035   0.000233  -0.005761   0.000088
   18  C  4  X   -0.000079   0.000018   0.000050  -0.001658  -0.000007
   19  C  4  Y    0.000010  -0.000011  -0.000000   0.003857   0.000056
   20  C  4  Z    0.000117   0.000078   0.000003   0.000654   0.000048
   21  C  5  S   -0.001454  -0.001948  -0.005485   0.992126   0.007562
   22  C  5  S   -0.000189  -0.000110  -0.000324   0.035938  -0.000217
   23  C  5  X   -0.000156   0.000070  -0.000102  -0.000846   0.000512
   24  C  5  Y   -0.000155  -0.000002  -0.000163  -0.000284   0.000030
   25  C  5  Z    0.000079   0.000021   0.000090  -0.002387   0.000381
   26  C  6  S    0.026981   0.019988   0.000665  -0.007998   0.000153
   27  C  6  S   -0.005038  -0.001956   0.000416  -0.007886   0.000155
   28  C  6  X   -0.002504   0.002073   0.000117   0.002064   0.000004
   29  C  6  Y   -0.003156   0.000070   0.000070  -0.000664  -0.000012
   30  C  6  Z    0.001296   0.001535  -0.000017  -0.004160  -0.000062
   31  C  7  S    0.991726  -0.000443  -0.015754   0.001690  -0.000027
   32  C  7  S    0.035736   0.000097  -0.008430   0.000118  -0.000013
   33  C  7  X   -0.000261  -0.000157   0.000495   0.000035  -0.000017
   34  C  7  Y    0.001154   0.000009  -0.004413  -0.000131   0.000029
   35  C  7  Z    0.000409  -0.000165  -0.001342  -0.000243  -0.000010
   36  C  8  S    0.016331   0.000586   0.992026   0.005575  -0.000007
   37  C  8  S   -0.007122   0.000064   0.036421   0.000154  -0.000012
   38  C  8  X   -0.000461  -0.000023  -0.000235   0.000064  -0.000000
   39  C  8  Y    0.004294  -0.000016  -0.001571   0.000107   0.000003
   40  C  8  Z    0.001266  -0.000021  -0.000146  -0.000138  -0.000001
   41  C  9  S    0.000531  -0.000033   0.001799   0.000382  -0.000017
   42  C  9  S    0.000060   0.000010  -0.006252   0.000073  -0.000002
   43  C  9  X    0.000028  -0.000015  -0.003133  -0.000094  -0.000006
   44  C  9  Y    0.000237  -0.000007   0.000984   0.000089  -0.000007
   45  C  9  Z    0.000016  -0.000006   0.002754  -0.000015  -0.000034
   46  O 10  S    0.000014   0.000000  -0.000019   0.000009   0.000000
   47  O 10  S   -0.000128  -0.000002   0.000307  -0.000078   0.000002
   48  O 10  X   -0.000032   0.000000   0.000114   0.000022   0.000004
   49  O 10  Y    0.000059   0.000002  -0.000133   0.000042  -0.000001
   50  O 10  Z    0.000026  -0.000001  -0.000102   0.000008   0.000002
   51  H 11  S   -0.000019  -0.006808  -0.000003  -0.000050   0.000151
   52  H 12  S   -0.001055  -0.006807  -0.000187  -0.000032   0.000019
   53  H 13  S    0.000006   0.000053  -0.000002   0.000081  -0.006917
   54  H 14  S    0.000006   0.000006  -0.000023  -0.000069  -0.000104
   55  H 15  S    0.000000  -0.000114  -0.000002  -0.000019   0.000040
   56  H 16  S   -0.000106  -0.000029  -0.000062   0.000016  -0.000042
   57  H 17  S   -0.000085   0.000013  -0.000015  -0.006872  -0.000085
   58  H 18  S   -0.000119  -0.000019  -0.000084   0.000165  -0.000026
   59  H 19  S   -0.006827   0.000017   0.000215  -0.000117   0.000002
   60  H 20  S    0.000023  -0.000004  -0.006839  -0.000095   0.000001

                     11         12         13         14         15
                   -1.3070    -1.0873    -1.0069    -0.9579    -0.9333
                     A          A          A          A          A   
    1  C  1  S   -0.000724  -0.054728  -0.126147   0.072849  -0.053618
    2  C  1  S    0.001752   0.143938   0.338333  -0.198978   0.152400
    3  C  1  X    0.000092  -0.003640  -0.078508   0.044219   0.027800
    4  C  1  Y    0.000382   0.011516   0.022318  -0.013366  -0.010575
    5  C  1  Z    0.000421   0.024114   0.041134  -0.005287   0.001747
    6  C  2  S   -0.000816  -0.046328  -0.147404   0.069698   0.016652
    7  C  2  S    0.001816   0.116224   0.385429  -0.185722  -0.047520
    8  C  2  X    0.000480   0.029910   0.065215  -0.033728   0.036523
    9  C  2  Y    0.000513   0.004303   0.011060   0.010111  -0.049275
   10  C  2  Z    0.000350  -0.001416  -0.011521   0.025871  -0.042914
   11  C  3  S   -0.002587  -0.034463  -0.095474   0.013237   0.089401
   12  C  3  S    0.006619   0.095068   0.267238  -0.034494  -0.261478
   13  C  3  X    0.002062   0.012557  -0.001897   0.018530  -0.002939
   14  C  3  Y    0.000833  -0.014655  -0.049917   0.024150  -0.002622
   15  C  3  Z    0.000905  -0.004197  -0.036817   0.035868  -0.008221
   16  C  4  S   -0.021851  -0.073581  -0.013728  -0.108142   0.114306
   17  C  4  S    0.055329   0.197904   0.041334   0.307374  -0.332129
   18  C  4  X    0.016413   0.033043  -0.027905   0.035063  -0.015721
   19  C  4  Y    0.021969  -0.028724  -0.010559  -0.048676  -0.048911
   20  C  4  Z   -0.009244  -0.021298  -0.005017   0.010971   0.008990
   21  C  5  S   -0.005092  -0.107943  -0.004601  -0.129539  -0.033492
   22  C  5  S    0.011741   0.273566   0.012913   0.352039   0.087624
   23  C  5  X   -0.000558   0.015128  -0.022585  -0.014617   0.059659
   24  C  5  Y    0.004888   0.022536  -0.001676   0.029859  -0.088040
   25  C  5  Z   -0.001287  -0.066855   0.002539  -0.022126  -0.086210
   26  C  6  S   -0.003587  -0.127708   0.015890  -0.045184  -0.125292
   27  C  6  S    0.008522   0.333247  -0.041734   0.120201   0.351952
   28  C  6  X    0.000068  -0.004041  -0.048572  -0.055017   0.005067
   29  C  6  Y    0.003004   0.051843  -0.033943  -0.021743  -0.015984
   30  C  6  Z    0.001341   0.038042  -0.001004   0.106387   0.014714
   31  C  7  S   -0.006725  -0.111531   0.086029   0.097953  -0.023376
   32  C  7  S    0.016024   0.285257  -0.228474  -0.266589   0.067051
   33  C  7  X   -0.002526  -0.044719   0.006272  -0.013725  -0.027133
   34  C  7  Y    0.006264   0.008060  -0.050650  -0.093498  -0.115204
   35  C  7  Z    0.003201   0.036299  -0.022352   0.001023  -0.004686
   36  C  8  S   -0.024623  -0.083370   0.089068   0.114939   0.074490
   37  C  8  S    0.058692   0.211368  -0.233670  -0.308408  -0.203144
   38  C  8  X   -0.022495  -0.014800   0.003149  -0.013717   0.034655
   39  C  8  Y    0.007264  -0.064020   0.052073   0.055505  -0.010931
   40  C  8  Z    0.019154  -0.001269   0.005603   0.028388  -0.030489
   41  C  9  S   -0.128044  -0.035642   0.022709  -0.001289   0.079069
   42  C  9  S    0.297662   0.097401  -0.063984   0.003125  -0.230398
   43  C  9  X   -0.024563   0.017039  -0.045998  -0.081302  -0.001626
   44  C  9  Y    0.145444  -0.085464   0.030512  -0.034454   0.137016
[...]
 19   H            X -0.01938230  0.00033096  0.00296115 -0.11575785 -0.02567676
                   Y -0.06178451  0.00261064  0.02180038 -0.11094166 -0.02023815
                   Z  0.01655230 -0.00033178  0.00379683  0.08906257  0.01977756
 20   H            X  0.00731563 -0.00017207 -0.00747310 -0.09199522 -0.06091342
                   Y  0.01496852 -0.00000522 -0.00513104 -0.03146732  0.03850483
                   Z -0.00796115 -0.00068687  0.01828095  0.09952693  0.06915837

 TRANS. SAYVETZ    X -0.00000005 -0.00000027 -0.00000190 -0.00000103 -0.00000086
                   Y -0.00000116  0.00000065 -0.00000038 -0.00000090  0.00000124
                   Z  0.00000273  0.00000085  0.00000073 -0.00000027  0.00000250
               TOTAL  0.00000296  0.00000110  0.00000207  0.00000139  0.00000291

   ROT. SAYVETZ    X  0.00064000 -0.00307330 -0.00615870  0.00104999  0.00110200
                   Y  0.00559248  0.00289518 -0.01017148  0.00112183  0.00034404
                   Z -0.00092084  0.00314960  0.00725060 -0.00126169 -0.00123379
               TOTAL  0.00570380  0.00526756  0.01392695  0.00198818  0.00168968

                           51          52          53          54          55
       FREQUENCY:      3634.34     3638.71     3689.50     3697.31     3699.06  
        SYMMETRY:         A           A           A           A           A   
    REDUCED MASS:      1.06235     1.06453     1.09084     1.09393     1.09619
    IR INTENSITY:      0.02530     0.10639     0.12794     0.07684     0.09947

  1   C            X  0.02441505  0.01604102 -0.00362328  0.00089339  0.00741242
                   Y -0.01712222 -0.01116946  0.00079584  0.00066523  0.00102598
                   Z -0.04788034 -0.03299330  0.00516804 -0.00186080 -0.00890531
  2   C            X  0.00336216 -0.00424934  0.00916450 -0.00768494 -0.04717406
                   Y  0.00825173  0.00365033  0.01101272 -0.00979463 -0.05736904
                   Z -0.00466392  0.00510640 -0.00603402  0.00496343  0.03130598
  3   C            X -0.01324001  0.02105783  0.00075322 -0.00031808  0.00075805
                   Y  0.03404841 -0.05339678 -0.00626662  0.00308038  0.01138459
                   Z  0.00353181 -0.00424099  0.00022274  0.00093132 -0.00085209
  4   C            X  0.00164615 -0.00103968  0.02838495  0.02601450  0.00384874
                   Y -0.00036658  0.00091110 -0.01074514 -0.01228432 -0.00188534
                   Z -0.00308201  0.00014911 -0.04846875 -0.04403138 -0.00561996
  5   C            X -0.00127528  0.00056401 -0.01511168  0.00017515 -0.00058190
                   Y -0.00293820  0.00025017 -0.03208565  0.00936657 -0.00225653
                   Z  0.00208411 -0.00081032  0.02538617 -0.00183695  0.00123903
  6   C            X -0.00120421  0.00046279 -0.01326121  0.02259392 -0.00716522
                   Y  0.00312003 -0.00067580  0.03354135 -0.05118837  0.01624270
                   Z  0.00053434  0.00103891  0.00401461 -0.00868842  0.00355962
  7   C            X  0.00072925  0.00004720  0.00581854 -0.01673669  0.00776202
                   Y -0.00023037  0.00010239 -0.00348751  0.00852157 -0.00364417
                   Z -0.00014398  0.00011696 -0.00660489  0.01852897 -0.00854855
  8   C            X -0.00027006  0.00006960 -0.00276181  0.00843445 -0.00371766
                   Y -0.00044256  0.00019149 -0.00290260  0.00952136 -0.00416913
                   Z  0.00027137 -0.00000775  0.00199470 -0.00628960  0.00280914
  9   C            X  0.00012426 -0.00017049 -0.00085190 -0.00143042  0.00005680
                   Y -0.00019897 -0.00004631 -0.00079524 -0.00116026 -0.00003708
                   Z  0.00033227 -0.00016258  0.00059357  0.00116651 -0.00010633
 10   O            X -0.00000073 -0.00001125  0.00004330  0.00013146  0.00000164
                   Y  0.00002288  0.00002065  0.00004719  0.00022771  0.00000534
                   Z -0.00001691 -0.00001641 -0.00004744 -0.00010011  0.00002151
 11   H            X -0.01468283 -0.00986519  0.00282067 -0.00081853 -0.00289863
                   Y  0.54382444  0.36253197 -0.04321517  0.00885490  0.03805739
                   Z  0.18734623  0.12434712 -0.01397275  0.00305576  0.01273047
 12   H            X -0.23115540 -0.15516182  0.02607556 -0.00938826 -0.03853230
                   Y -0.36292920 -0.24441731  0.03870150 -0.01547063 -0.06475892
                   Z  0.34389206  0.23313418 -0.03493137  0.01426941  0.05890102
 13   H            X -0.08929826  0.01620898 -0.09684956  0.08463700  0.51050212
                   Y -0.11251637  0.02398109 -0.12277202  0.10694007  0.64500271
                   Z  0.06487764 -0.01117492  0.07020486 -0.06094363 -0.36757957
 14   H            X -0.13373834  0.20597396  0.02434011 -0.00846369 -0.03535017
                   Y -0.28615060  0.44552302  0.04801587 -0.01704245 -0.07315470
                   Z  0.19094321 -0.29728406 -0.03078653  0.01142052  0.05174932
 15   H            X  0.28756244 -0.44088914 -0.03123265  0.01226357  0.02539171
                   Y -0.08375667  0.12799793  0.00969629 -0.00382495 -0.00871711
                   Z -0.21404787  0.32873722  0.02538180 -0.01042179 -0.02098855
 16   H            X -0.01854202  0.00251351 -0.31339760 -0.28415656 -0.03781857
                   Y  0.00823190 -0.00116463  0.13205444  0.12093294  0.01590834
                   Z  0.03676200 -0.00507008  0.55445757  0.50077959  0.06520816
 17   H            X  0.01533093 -0.00332661  0.16605868 -0.02914641  0.01142054
                   Y  0.03422169 -0.00729970  0.38175881 -0.06948169  0.02628783
                   Z -0.02591054  0.00561649 -0.29213623  0.05133687 -0.01990654
 18   H            X  0.01693509 -0.00545853  0.16425793 -0.25272930  0.07907769
                   Y -0.03587847  0.01129120 -0.37902256  0.58191286 -0.18314391
                   Z -0.00387490  0.00095718 -0.05317833  0.08358881 -0.02721857
 19   H            X -0.00613792  0.00087205 -0.07063655  0.19726909 -0.08983795
                   Y  0.00204110 -0.00056654  0.02743756 -0.07611298  0.03464382
                   Z  0.00694369 -0.00093163  0.07756590 -0.21504616  0.09805221
 20   H            X  0.00362185 -0.00102988  0.02653191 -0.09187269  0.04001475
                   Y  0.00534172 -0.00161806  0.03677093 -0.12508355  0.05449330
                   Z -0.00303559  0.00060946 -0.01932872  0.06549386 -0.02848053

 TRANS. SAYVETZ    X  0.00000059 -0.00000043 -0.00000121 -0.00000008  0.00000048
                   Y  0.00000047 -0.00000019 -0.00000107  0.00000039 -0.00000009
                   Z -0.00000174  0.00000098  0.00000007 -0.00000034  0.00000079
               TOTAL  0.00000190  0.00000109  0.00000162  0.00000052  0.00000092

   ROT. SAYVETZ    X  0.00019357 -0.00058364 -0.00019932  0.00053861  0.00001455
                   Y -0.00043274 -0.00069172  0.00070428  0.00093217 -0.00014113
                   Z -0.00016782  0.00068046  0.00025178 -0.00062315  0.00000581
               TOTAL  0.00050289  0.00113231  0.00077404  0.00124393  0.00014200

                           56          57          58          59          60
       FREQUENCY:      3704.98     3715.89     3736.10     3785.88     3787.67  
        SYMMETRY:         A           A           A           A           A   
    REDUCED MASS:      1.09180     1.10090     1.10598     1.11706     1.11747
    IR INTENSITY:      0.49435     0.07553     0.06451     0.00062     0.01702

  1   C            X -0.00073110  0.00020078 -0.00006718 -0.01869008 -0.01112645
                   Y  0.00067168  0.00145864 -0.00032755 -0.07678817 -0.04705651
                   Z  0.00053460 -0.00072338  0.00011853  0.01526024  0.00883262
  2   C            X  0.00469834 -0.00410460  0.00005881 -0.00109087 -0.00308516
                   Y  0.00537502 -0.00477682  0.00007673 -0.00007217 -0.00389039
                   Z -0.00305658  0.00243860 -0.00001668  0.00091349  0.00167422
  3   C            X -0.00010766  0.00062351 -0.00008132  0.03335855 -0.05496584
                   Y -0.00062000  0.00076951 -0.00024990  0.01565733 -0.02489091
                   Z  0.00051220 -0.00114132  0.00016452 -0.03250916  0.05328994
  4   C            X  0.00778481 -0.01536189  0.00162258  0.00004625  0.00001026
                   Y -0.00437313  0.01001569 -0.00082070 -0.00018864  0.00030034
                   Z -0.01296678  0.02362341 -0.00237769 -0.00000972  0.00051348
  5   C            X  0.00467765 -0.02097730  0.00178722 -0.00015577 -0.00018830
                   Y  0.01521768 -0.05201907  0.00436475 -0.00007653 -0.00050991
                   Z -0.00963190  0.04208874 -0.00353531  0.00022144  0.00044899
  6   C            X  0.00850115  0.01671570 -0.00138577  0.00033621  0.00052608
                   Y -0.02485033 -0.03601892  0.00665527 -0.00012066 -0.00049458
                   Z -0.00213309 -0.00962762  0.00043493 -0.00017883 -0.00008876
  7   C            X  0.04195474  0.00302809 -0.03046301  0.00012518  0.00015888
                   Y -0.01515135  0.00113288  0.01951200 -0.00014824 -0.00024301
                   Z -0.04534836 -0.00285421  0.03433317 -0.00045221 -0.00042672
  8   C            X -0.02327637 -0.00621776 -0.03671068 -0.00006843 -0.00012060
                   Y -0.02752362 -0.00906201 -0.05959080 -0.00005631  0.00011659
                   Z  0.01728997  0.00431494  0.02432233 -0.00002742 -0.00001741
  9   C            X  0.00093603  0.00072811  0.00155563  0.00002928 -0.00010455
                   Y  0.00007038  0.00087219 -0.00065632  0.00002922  0.00003573
                   Z -0.00094360 -0.00051711 -0.00169215  0.00010641 -0.00013532
 10   O            X -0.00011470 -0.00004645 -0.00016476  0.00001581 -0.00001956
                   Y -0.00009350 -0.00017648  0.00022590 -0.00000844  0.00000984
                   Z  0.00008936  0.00001386  0.00021243  0.00000270 -0.00001757
 11   H            X  0.00045760  0.00039229  0.00008642 -0.01473931 -0.00870575
                   Y -0.00705224 -0.00610332  0.00171375  0.52593690  0.32231583
                   Z -0.00229557 -0.00193456  0.00056513  0.18493354  0.11296928
 12   H            X  0.00119558 -0.00514500  0.00109307  0.24011411  0.14564872
                   Y  0.00269796 -0.00907112  0.00251100  0.37817086  0.22865165
                   Z -0.00279197  0.00796766 -0.00233738 -0.36507484 -0.22071416
 13   H            X -0.04939399  0.04288921 -0.00039176  0.01003441  0.03704243
                   Y -0.06236646  0.05419881 -0.00066965  0.00690320  0.04629065
                   Z  0.03538699 -0.03090943  0.00034693 -0.00771237 -0.02431040
 14   H            X  0.00284480 -0.00471078  0.00149498 -0.12155706  0.19779981
                   Y  0.00538598 -0.00938744  0.00255716 -0.26809542  0.43543283
                   Z -0.00406313  0.00693733 -0.00162771  0.17912156 -0.29019075
 15   H            X -0.00041635 -0.00415102 -0.00009318 -0.27335540  0.44903485
                   Y  0.00001717  0.00136564 -0.00003101  0.08173327 -0.13353214
                   Z  0.00010039  0.00346903  0.00007785  0.20224239 -0.33206071
 16   H            X -0.08315666  0.15221642 -0.01357689 -0.00146837  0.00407322
                   Y  0.03505292 -0.06559931  0.00592507  0.00083161 -0.00203031
                   Z  0.14631098 -0.26638966  0.02396761  0.00308406 -0.00834399
 17   H            X -0.06727312  0.24720530 -0.01924499  0.00081302  0.00248933
                   Y -0.15890230  0.57465020 -0.04577191  0.00162587  0.00568514
                   Z  0.12097631 -0.44180651  0.03512680 -0.00138185 -0.00425651
 18   H            X -0.11448155 -0.17128992  0.02569903 -0.00327980 -0.00385826
                   Y  0.26828178  0.39556830 -0.06214107  0.00637548  0.00825222
                   Z  0.03700310  0.05869766 -0.00853019  0.00061684  0.00093609
 19   H            X -0.47390435 -0.02863867  0.33441294 -0.00287133 -0.00302622
                   Y  0.17840806  0.00937347 -0.12834566  0.00130015  0.00128663
                   Z  0.51321679  0.03037163 -0.36243495  0.00290992  0.00299845
 20   H            X  0.25683830  0.07399110  0.43140602  0.00066908  0.00014147
                   Y  0.34939633  0.10117606  0.59021415  0.00076749 -0.00005696
                   Z -0.18153363 -0.05248131 -0.30472281 -0.00022666  0.00013068

 TRANS. SAYVETZ    X  0.00000067  0.00000054 -0.00000029 -0.00000003 -0.00000007
                   Y  0.00000011 -0.00000029  0.00000043 -0.00000002 -0.00000007
                   Z -0.00000029 -0.00000022  0.00000067  0.00000003  0.00000010
               TOTAL  0.00000074  0.00000065  0.00000084  0.00000005  0.00000014

   ROT. SAYVETZ    X  0.00022672  0.00018410 -0.00004509 -0.00042463 -0.00054826
                   Y  0.00030541 -0.00020078  0.00002802 -0.00034716  0.00116441
                   Z -0.00026920 -0.00024550  0.00005625  0.00047784  0.00065169
               TOTAL  0.00046598  0.00036671  0.00007735  0.00072743  0.00144262

 REFERENCE ON SAYVETZ CONDITIONS - A. SAYVETZ, J.CHEM.PHYS., 7, 383-389(1939).

 NOTE - THE MODES J,K ARE ORTHONORMALIZED ACCORDING TO
 SUM ON I   M(I) * (X(I,J)*X(I,K) + Y(I,J)*Y(I,K) + Z(I,J)*Z(I,K)) = DELTA(J,K)

  MODE FREQ(CM**-1)  SYMMETRY  RED. MASS  IR INTENS.
     1    1105.027    A        9.337559    0.024507
     2       0.131    A        6.485027    0.000094
     3       0.011    A        6.703657    0.000000
     4       0.009    A        6.703571    0.000000
     5       1.627    A        4.928309    0.014634
     6      29.487    A        5.891611    0.016260
     7      35.825    A        4.148738    0.001077
     8     110.735    A        4.132748    0.028012
     9     202.445    A        3.552314    0.015158
    10     257.734    A        4.163923    0.029884
    11     373.629    A        5.303160    0.031097
    12     410.175    A        5.704817    0.169162
    13     456.159    A        1.990617    0.060331
    14     487.183    A        3.523076    0.073571
    15     497.131    A        4.519902    0.137171
    16     536.884    A        1.988647    0.234259
    17     570.912    A        2.521757    0.186644
    18     603.779    A        5.425745    0.018135
    19     674.649    A        5.938493    0.036238
    20     837.149    A        3.394256    0.044699
    21     852.859    A        4.080751    0.044622
    22     924.922    A        1.631633    1.209007
    23     935.611    A        1.774984    0.149337
    24     971.335    A        1.615381    0.876966
    25     995.134    A        1.365050    0.224851
    26    1023.974    A        1.418927    0.043242
    27    1084.995    A        1.839877    0.188582
    28    1122.432    A        2.888285    0.002578
    29    1171.610    A        1.971701    0.073760
    30    1201.747    A        1.125574    0.032732
    31    1209.690    A        1.271838    0.004301
    32    1228.759    A        1.503079    0.137645
    33    1260.351    A        1.270396    0.221268
    34    1278.538    A        1.151196    0.415574
    35    1305.195    A        1.232840    0.016371
    36    1328.608    A        1.261008    0.107565
    37    1355.719    A        1.266733    0.030042
    38    1358.662    A        1.122901    0.019560
    39    1419.223    A        1.832345    0.645161
    40    1471.291    A        1.330393    0.100984
    41    1484.857    A        1.781876    0.004816
    42    1600.510    A        1.604169    0.151342
    43    1639.634    A        1.714788    0.150538
    44    1668.152    A        1.505940    0.060443
    45    1727.115    A        2.567257    0.327413
    46    1758.624    A        1.892444    0.050075
    47    1811.294    A        1.277767    0.196589
    48    1863.181    A        2.593580    0.054750
    49    2004.904    A        7.008387    0.061510
    50    2075.456    A       10.553514    1.845742
    51    3634.335    A        1.062354    0.025298
    52    3638.710    A        1.064525    0.106390
    53    3689.502    A        1.090838    0.127935
    54    3697.307    A        1.093932    0.076843
    55    3699.056    A        1.096188    0.099472
    56    3704.979    A        1.091798    0.494346
    57    3715.885    A        1.100902    0.075529
    58    3736.102    A        1.105982    0.064510
    59    3785.878    A        1.117058    0.000623
    60    3787.668    A        1.117465    0.017020

     -------------------------------
     THERMOCHEMISTRY AT T=  298.15 K
     -------------------------------

 USING IDEAL GAS, RIGID ROTOR, HARMONIC NORMAL MODE APPROXIMATIONS.
 P=  1.01325E+05 PASCAL.
 ALL FREQUENCIES ARE SCALED BY   1.00000
 THE MOMENTS OF INERTIA ARE (IN AMU*BOHR**2)
            865.18814          1321.62037          1660.67058
 THE ROTATIONAL SYMMETRY NUMBER IS  1.0
 THE ROTATIONAL CONSTANTS ARE (IN GHZ)
      2.08404     1.36430     1.08576
   1 IMAGINARY FREQUENCY VIBRATION(S) IS(ARE) EXCLUDED
     FROM THE FOLLOWING THERMOCHEMICAL ANALYSIS.
      8 -     60 VIBRATIONAL MODES ARE USED IN THERMOCHEMISTRY.
 THE HARMONIC ZERO POINT ENERGY IS (SCALED BY   1.000)
        0.191918 HARTREE/MOLECULE    42121.184943 CM**-1/MOLECULE 
      120.430632 KCAL/MOL              503.881764 KJ/MOL

               Q               LN Q
 ELEC.     1.00000E+00       0.000000
 TRANS.    6.10192E+07      17.926699
 ROT.      4.93278E+05      13.108828
 VIB.      1.47800E+01       2.693275
 TOT.      4.44870E+14      33.728803

              E         H         G         CV        CP        S
           KJ/MOL    KJ/MOL    KJ/MOL   J/MOL-K   J/MOL-K   J/MOL-K
 ELEC.      0.000     0.000     0.000     0.000     0.000     0.000
 TRANS.     3.718     6.197   -44.439    12.472    20.786   169.836
 ROT.       3.718     3.718   -32.496    12.472    12.472   121.464
 VIB.     515.200   515.200   497.205    94.218    94.218    60.356
 TOTAL    522.637   525.116   420.270   119.161   127.475   351.656
 VIB. THERMAL CORRECTION E(T)-E(0) = H(T)-H(0) =     11318.637 J/MOL

              E         H         G         CV        CP        S
         KCAL/MOL  KCAL/MOL  KCAL/MOL CAL/MOL-K CAL/MOL-K CAL/MOL-K
 ELEC.      0.000     0.000     0.000     0.000     0.000     0.000
 TRANS.     0.889     1.481   -10.621     2.981     4.968    40.592
 ROT.       0.889     0.889    -7.767     2.981     2.981    29.031
 VIB.     123.136   123.136   118.835    22.519    22.519    14.425
 TOTAL    124.913   125.506   100.447    28.480    30.467    84.048
 VIB. THERMAL CORRECTION E(T)-E(0) = H(T)-H(0) =      2705.219 CAL/MOL

     *******************************************************
     * THIS IS NOT A STATIONARY POINT ON THE MOLECULAR PES *
     *     THE VIBRATIONAL ANALYSIS IS NOT VALID !!!       *
     *******************************************************
 ......END OF NORMAL COORDINATE ANALYSIS......
 STEP CPU TIME =     0.01 TOTAL CPU TIME =        187.9 (      3.1 MIN)
 TOTAL WALL CLOCK TIME=        190.5 SECONDS, CPU UTILIZATION IS    98.67%
               580000  WORDS OF DYNAMIC MEMORY USED
 EXECUTION OF GAMESS TERMINATED NORMALLY Sat Nov 13 15:51:48 2021
 DDI: 263640 bytes (0.3 MB / 0 MWords) used by master data server.

 ----------------------------------------
 CPU timing information for all processes
 ========================================
 0: 184.579 + 3.367 = 187.947
 ----------------------------------------
 ddikick.x: exited gracefully.
----- accounting info -----
Files used on the master node chemcompute-node-0.novalocal were:
-rw-r--r--. 1 chemcomp chemcomp     1347 Nov 13 15:48 /scratch/306012/341914.F05
-rw-rw-r--. 1 chemcomp chemcomp 17821584 Nov 13 15:51 /scratch/306012/341914.F08
-rw-rw-r--. 1 chemcomp chemcomp 85196800 Nov 13 15:51 /scratch/306012/341914.F10
-rw-rw-r--. 1 chemcomp chemcomp   878880 Nov 13 15:51 /scratch/306012/341914.F18
Sat Nov 13 15:51:51 UTC 2021
0.117u 0.108s 3:14.01 0.1%	0+0k 8+224io 0pf+0w
Finishing Up...
Looking for IR data...
Looking for Raman data...
vibramans not found
Looking for thermodynamics data...
Looking for UV-Vis data...
306012
